HEADER
"PSFversion" "1.00"
"Log Generator" "drlLog rev. 1.0"
"Log Time Stamp" "Fri Nov 29 14:57:56 2024"
"psfversion" "1.4.0"
"simulator" "spectre"
"version" "23.1.0.242.isr1"
"date" "2:57:56 PM, Fri Nov 29, 2024"
"design" "# Simulate DC sweeps of gate to source voltage"
"signalNameType" "spectre"
"simMode" "Spectre"
"measdgt" 0
"ingold" 2.0e-2
"sst2usecolon" 0
