HEADER
"PSFversion" "1.00"
"simulator" "spectre"
"version" "23.1.0.242.isr1"
"date" "2:57:56 PM, Fri Nov 29, 2024"
"design" "# Simulate DC sweeps of gate to source voltage"
"analysis type" "dc"
"analysis name" "vgs-004_vds"
"analysis description" "DC Analysis `vgs-004_vds': vds = (0 -> 1.2)"
"xVecSorted" "unsorted"
"tolerance.relative" 1.000000000000000e-03
"reltol" 1.000000000000000e-03
"abstol(V)" 1.000000000000000e-06
"abstol(I)" 1.000000000000000e-12
"temp" 2.700000000000000e+01
"tnom" 2.700000000000000e+01
"tempeffects" "all"
"gmindc" 1.000000000000000e-12
TYPE
"sweep" FLOAT DOUBLE PROP(
"key" "sweep"
)
"LogicV" FLOAT DOUBLE PROP(
"key" "node"
)
"Real" FLOAT DOUBLE PROP(
"units" ""
"key" "node"
"tolerance" 1.000000000000000e-06
)
"Tau" FLOAT DOUBLE PROP(
"units" "N*m"
"key" "node"
"tolerance" 1.000000000000000e-06
)
"Alpha" FLOAT DOUBLE PROP(
"units" "rads/s^2"
"key" "node"
"tolerance" 1.000000000000000e-06
)
"Omega" FLOAT DOUBLE PROP(
"units" "rads/s"
"key" "node"
"tolerance" 1.000000000000000e-06
)
"Theta" FLOAT DOUBLE PROP(
"units" "rads"
"key" "node"
"tolerance" 1.000000000000000e-06
)
"F" FLOAT DOUBLE PROP(
"units" "N"
"key" "node"
"tolerance" 1.000000000000000e-06
)
"Imp" FLOAT DOUBLE PROP(
"units" "m/s^3"
"key" "node"
"tolerance" 1.000000000000000e-06
)
"Acc" FLOAT DOUBLE PROP(
"units" "m/s^2"
"key" "node"
"tolerance" 1.000000000000000e-06
)
"Vel" FLOAT DOUBLE PROP(
"units" "m/s"
"key" "node"
"tolerance" 1.000000000000000e-06
)
"Pos" FLOAT DOUBLE PROP(
"units" "m"
"key" "node"
"tolerance" 1.000000000000000e-06
)
"Phi" FLOAT DOUBLE PROP(
"units" "Wb"
"key" "node"
"tolerance" 1.000000000000000e-09
)
"V" FLOAT DOUBLE PROP(
"units" "V"
"key" "node"
"tolerance" 1.000000000000000e-06
)
"I" FLOAT DOUBLE PROP(
"units" "A"
"key" "branch"
"tolerance" 1.000000000000000e-12
)
"MMF" FLOAT DOUBLE PROP(
"units" "A*turn"
"key" "node"
"tolerance" 1.000000000000000e-12
)
"Wb" FLOAT DOUBLE PROP(
"units" "Wb"
"key" "node"
"tolerance" 1.000000000000000e-09
)
"Temp" FLOAT DOUBLE PROP(
"units" "C"
"key" "node"
"tolerance" 1.000000000000000e-04
)
"Pwr" FLOAT DOUBLE PROP(
"units" "W"
"key" "node"
"tolerance" 1.000000000000000e-09
)
"U" FLOAT DOUBLE PROP(
"units" ""
"key" "node"
"tolerance" 1.000000000000000e-06
)
"V/Sec" FLOAT DOUBLE PROP(
"units" "V/s"
"key" "node"
"tolerance" 9.999999999999999e-05
)
"I/Sec" FLOAT DOUBLE PROP(
"units" "A/s"
"key" "node"
"tolerance" 1.000000000000000e-06
)
"1/Sec" FLOAT DOUBLE PROP(
"units" "1/s"
"key" "node"
"tolerance" 9.999999999999999e-05
)
"HOD" FLOAT DOUBLE PROP(
"units" ""
"key" "node"
"tolerance" 1.000000000000000e-02
)
"Q" FLOAT DOUBLE PROP(
"units" "coul"
"key" "node"
"tolerance" 1.000000000000000e-14
)
"A" FLOAT DOUBLE PROP(
"key" "inst"
)
SWEEP
"vds" "sweep" PROP(
"sweep_direction" 0
"plot" 0
"grid" 1
)
TRACE
"M1:ids" "A"
"D" "V"
"S" "V"
"G" "V"
"B" "V"
"M1.n1" "V"
"Vb:p" "I"
"Vd:p" "I"
"Vg:p" "I"
"Vs:p" "I"
VALUE
"vds" 0.000000000000000e+00
"M1:ids" 0.000000000000000e+00
"D" 0.000000000000000e+00
"S" 0.000000000000000e+00
"G" 8.000000000000000e-01
"B" 0.000000000000000e+00
"M1.n1" 7.999999982444904e-01
"Vb:p" 3.126973316268787e-16
"Vd:p" 1.718167664998587e-10
"Vg:p" -3.436338456970490e-10
"Vs:p" 2.100866297545783e-26
"vds" 1.000000000000000e-02
"M1:ids" 1.376795758879632e-06
"D" 1.000000000000000e-02
"S" 0.000000000000000e+00
"G" 8.000000000000000e-01
"B" 0.000000000000000e+00
"M1.n1" 7.999999982595768e-01
"Vb:p" 1.031558700795557e-14
"Vd:p" -1.376626016949279e-06
"Vg:p" -3.406807542708207e-10
"Vs:p" -1.983132603830096e-23
"vds" 2.000000000000000e-02
"M1:ids" 2.721891159778338e-06
"D" 2.000000000000000e-02
"S" 0.000000000000000e+00
"G" 8.000000000000000e-01
"B" 0.000000000000000e+00
"M1.n1" 7.999999982815937e-01
"Vb:p" 2.031820300358286e-14
"Vd:p" -2.721724388302796e-06
"Vg:p" -3.363710197377626e-10
"Vs:p" 6.882352783070945e-22
"vds" 3.000000000000000e-02
"M1:ids" 4.035185935918196e-06
"D" 3.000000000000000e-02
"S" 0.000000000000000e+00
"G" 8.000000000000000e-01
"B" 0.000000000000000e+00
"M1.n1" 7.999999983022341e-01
"Vb:p" 3.032061867005191e-14
"Vd:p" -4.035021947100205e-06
"Vg:p" -3.323307459183626e-10
"Vs:p" 9.099196824713023e-22
"vds" 4.000000000000000e-02
"M1:ids" 5.316583422026603e-06
"D" 4.000000000000000e-02
"S" 0.000000000000000e+00
"G" 8.000000000000000e-01
"B" 0.000000000000000e+00
"M1.n1" 7.999999983221397e-01
"Vb:p" 4.032288375243013e-14
"Vd:p" -5.316422112113481e-06
"Vg:p" -3.284343137732043e-10
"Vs:p" 7.808795069130335e-22
"vds" 5.000000000000000e-02
"M1:ids" 6.565990821171388e-06
"D" 5.000000000000000e-02
"S" 0.000000000000000e+00
"G" 8.000000000000000e-01
"B" 0.000000000000000e+00
"M1.n1" 7.999999983415568e-01
"Vb:p" 5.032503198485221e-14
"Vd:p" -6.565832118771698e-06
"Vg:p" -3.246335085570866e-10
"Vs:p" 2.100866298581077e-26
"vds" 6.000000000000000e-02
"M1:ids" 7.783319471011138e-06
"D" 6.000000000000000e-02
"S" 0.000000000000000e+00
"G" 8.000000000000000e-01
"B" 0.000000000000000e+00
"M1.n1" 7.999999983605831e-01
"Vb:p" 6.032708624928719e-14
"Vd:p" -7.783163317705097e-06
"Vg:p" -3.209091818838559e-10
"Vs:p" -2.124178804373158e-21
"vds" 7.000000000000001e-02
"M1:ids" 8.968485111494469e-06
"D" 7.000000000000001e-02
"S" 0.000000000000000e+00
"G" 8.000000000000000e-01
"B" 0.000000000000000e+00
"M1.n1" 7.999999983792648e-01
"Vb:p" 7.032906207960939e-14
"Vd:p" -8.968331455083372e-06
"Vg:p" -3.172523064740480e-10
"Vs:p" 1.065429637631410e-21
"vds" 8.000000000000000e-02
"M1:ids" 1.012140815672624e-05
"D" 8.000000000000000e-02
"S" 0.000000000000000e+00
"G" 8.000000000000000e-01
"B" 0.000000000000000e+00
"M1.n1" 7.999999983976269e-01
"Vb:p" 8.033097004142098e-14
"Vd:p" -1.012125694846587e-05
"Vg:p" -3.136580033142913e-10
"Vs:p" -6.154013670764335e-22
"vds" 9.000000000000000e-02
"M1:ids" 1.124201397461966e-05
"D" 9.000000000000000e-02
"S" 0.000000000000000e+00
"G" 8.000000000000000e-01
"B" 0.000000000000000e+00
"M1.n1" 7.999999984156843e-01
"Vb:p" 9.033281734800718e-14
"Vd:p" -1.124186516792021e-05
"Vg:p" -3.101233428650997e-10
"Vs:p" -2.018110608001927e-22
"vds" 9.999999999999999e-02
"M1:ids" 1.233023317904932e-05
"D" 9.999999999999999e-02
"S" 0.000000000000000e+00
"G" 8.000000000000000e-01
"B" 0.000000000000000e+00
"M1.n1" 7.999999984334467e-01
"Vb:p" 1.003346089572690e-13
"Vd:p" -1.233008672879335e-05
"Vg:p" -3.066464185158423e-10
"Vs:p" 7.147050579077426e-22
"vds" 1.100000000000000e-01
"M1:ids" 1.338600194056444e-05
"D" 1.100000000000000e-01
"S" 0.000000000000000e+00
"G" 8.000000000000000e-01
"B" 0.000000000000000e+00
"M1.n1" 7.999999984509210e-01
"Vb:p" 1.103363483159827e-13
"Vd:p" -1.338585780271412e-05
"Vg:p" -3.032259132934239e-10
"Vs:p" 2.878798618311996e-22
"vds" 1.200000000000000e-01
"M1:ids" 1.440926232338748e-05
"D" 1.200000000000000e-01
"S" 0.000000000000000e+00
"G" 8.000000000000000e-01
"B" 0.000000000000000e+00
"M1.n1" 7.999999984681118e-01
"Vb:p" 1.203380378644103e-13
"Vd:p" -1.440912045473794e-05
"Vg:p" -2.998608806842497e-10
"Vs:p" -1.985212461462063e-21
"vds" 1.300000000000000e-01
"M1:ids" 1.539996265849802e-05
"D" 1.300000000000000e-01
"S" 0.000000000000000e+00
"G" 8.000000000000000e-01
"B" 0.000000000000000e+00
"M1.n1" 7.999999984850227e-01
"Vb:p" 1.303396793780533e-13
"Vd:p" -1.539982301650955e-05
"Vg:p" -2.965506273427509e-10
"Vs:p" 1.161382588697028e-21
"vds" 1.400000000000000e-01
"M1:ids" 1.635805796521150e-05
"D" 1.400000000000000e-01
"S" 0.000000000000000e+00
"G" 8.000000000000000e-01
"B" 0.000000000000000e+00
"M1.n1" 7.999999985016565e-01
"Vb:p" 1.403412741987308e-13
"Vd:p" -1.635792050788514e-05
"Vg:p" -2.932946482009613e-10
"Vs:p" 4.634312299767998e-23
"vds" 1.500000000000000e-01
"M1:ids" 1.728351043695967e-05
"D" 1.500000000000000e-01
"S" 0.000000000000000e+00
"G" 8.000000000000000e-01
"B" 0.000000000000000e+00
"M1.n1" 7.999999985180146e-01
"Vb:p" 1.503428233904417e-13
"Vd:p" -1.728337512273744e-05
"Vg:p" -2.900925904828768e-10
"Vs:p" 2.240026107554709e-21
"vds" 1.600000000000000e-01
"M1:ids" 1.817629001117454e-05
"D" 1.600000000000000e-01
"S" 0.000000000000000e+00
"G" 8.000000000000000e-01
"B" 0.000000000000000e+00
"M1.n1" 7.999999985340985e-01
"Vb:p" 1.603443278441071e-13
"Vd:p" -1.817615679885273e-05
"Vg:p" -2.869442347969516e-10
"Vs:p" 5.846533578219510e-21
"vds" 1.700000000000000e-01
"M1:ids" 1.903637504853380e-05
"D" 1.700000000000000e-01
"S" 0.000000000000000e+00
"G" 8.000000000000000e-01
"B" 0.000000000000000e+00
"M1.n1" 7.999999985499086e-01
"Vb:p" 1.703457883475746e-13
"Vd:p" -1.903624389718213e-05
"Vg:p" -2.838494870918142e-10
"Vs:p" -1.124755548116997e-22
"vds" 1.800000000000000e-01
"M1:ids" 1.986375315369419e-05
"D" 1.800000000000000e-01
"S" 0.000000000000000e+00
"G" 8.000000000000000e-01
"B" 0.000000000000000e+00
"M1.n1" 7.999999985654446e-01
"Vb:p" 1.803472056320196e-13
"Vd:p" -1.986362402257631e-05
"Vg:p" -2.808083781266836e-10
"Vs:p" 5.625038244339759e-22
"vds" 1.900000000000000e-01
"M1:ids" 2.065842217846336e-05
"D" 1.900000000000000e-01
"S" 0.000000000000000e+00
"G" 8.000000000000000e-01
"B" 0.000000000000000e+00
"M1.n1" 7.999999985807057e-01
"Vb:p" 1.903485804023149e-13
"Vd:p" -2.065829502695464e-05
"Vg:p" -2.778210686552587e-10
"Vs:p" -7.014281533398354e-22
"vds" 2.000000000000000e-01
"M1:ids" 2.142039145970540e-05
"D" 2.000000000000000e-01
"S" 0.000000000000000e+00
"G" 8.000000000000000e-01
"B" 0.000000000000000e+00
"M1.n1" 7.999999985956905e-01
"Vb:p" 2.003499133565217e-13
"Vd:p" -2.142026624720541e-05
"Vg:p" -2.748878594018980e-10
"Vs:p" 2.349402946918370e-22
"vds" 2.100000000000000e-01
"M1:ids" 2.214968335884861e-05
"D" 2.100000000000000e-01
"S" 0.000000000000000e+00
"G" 8.000000000000000e-01
"B" 0.000000000000000e+00
"M1.n1" 7.999999986103966e-01
"Vb:p" 2.103512051980057e-13
"Vd:p" -2.214956004468483e-05
"Vg:p" -2.720092054341532e-10
"Vs:p" 4.221950852575785e-21
"vds" 2.200000000000001e-01
"M1:ids" 2.284633518851199e-05
"D" 2.200000000000001e-01
"S" 0.000000000000000e+00
"G" 8.000000000000000e-01
"B" 0.000000000000000e+00
"M1.n1" 7.999999986248207e-01
"Vb:p" 2.203524566425664e-13
"Vd:p" -2.284621373183327e-05
"Vg:p" -2.691857348591700e-10
"Vs:p" 2.534502397589254e-21
"vds" 2.300000000000001e-01
"M1:ids" 2.351040163548532e-05
"D" 2.300000000000001e-01
"S" 0.000000000000000e+00
"G" 8.000000000000000e-01
"B" 0.000000000000000e+00
"M1.n1" 7.999999986389588e-01
"Vb:p" 2.303536684222052e-13
"Vd:p" -2.351028199514113e-05
"Vg:p" -2.664182719667016e-10
"Vs:p" 4.198789773910881e-21
"vds" 2.400000000000001e-01
"M1:ids" 2.414195781910959e-05
"D" 2.400000000000001e-01
"S" 0.000000000000000e+00
"G" 8.000000000000000e-01
"B" 0.000000000000000e+00
"M1.n1" 7.999999986528054e-01
"Vb:p" 2.403548412866429e-13
"Vd:p" -2.414183995351355e-05
"Vg:p" -2.637078650361179e-10
"Vs:p" 3.904502498518062e-22
"vds" 2.500000000000001e-01
"M1:ids" 2.474110316095013e-05
"D" 2.500000000000001e-01
"S" 0.000000000000000e+00
"G" 8.000000000000000e-01
"B" 0.000000000000000e+00
"M1.n1" 7.999999986663537e-01
"Vb:p" 2.503559760033409e-13
"Vd:p" -2.474098702792370e-05
"Vg:p" -2.610558190157157e-10
"Vs:p" 6.386044820229408e-22
"vds" 2.600000000000001e-01
"M1:ids" 2.530796628592474e-05
"D" 2.600000000000001e-01
"S" 0.000000000000000e+00
"G" 8.000000000000000e-01
"B" 0.000000000000000e+00
"M1.n1" 7.999999986795958e-01
"Vb:p" 2.603570733565456e-13
"Vd:p" -2.530785184251905e-05
"Vg:p" -2.584637331396093e-10
"Vs:p" -3.968366867576890e-23
"vds" 2.700000000000001e-01
"M1:ids" 2.584271122592837e-05
"D" 2.700000000000001e-01
"S" 0.000000000000000e+00
"G" 8.000000000000000e-01
"B" 0.000000000000000e+00
"M1.n1" 7.999999986925217e-01
"Vb:p" 2.703581341457086e-13
"Vd:p" -2.584259842822146e-05
"Vg:p" -2.559335432112210e-10
"Vs:p" 3.930783126363083e-21
"vds" 2.800000000000001e-01
"M1:ids" 2.634554525110873e-05
"D" 2.800000000000001e-01
"S" 0.000000000000000e+00
"G" 8.000000000000000e-01
"B" 0.000000000000000e+00
"M1.n1" 7.999999987051196e-01
"Vb:p" 2.803591591835229e-13
"Vd:p" -2.634543405397537e-05
"Vg:p" -2.534675676601525e-10
"Vs:p" 3.004340985519373e-21
"vds" 2.900000000000001e-01
"M1:ids" 2.681672870319977e-05
"D" 2.900000000000001e-01
"S" 0.000000000000000e+00
"G" 8.000000000000000e-01
"B" 0.000000000000000e+00
"M1.n1" 7.999999987173754e-01
"Vb:p" 2.903601492937433e-13
"Vd:p" -2.681661906005373e-05
"Vg:p" -2.510685554411177e-10
"Vs:p" 7.616700516762099e-21
"vds" 3.000000000000001e-01
"M1:ids" 2.725658723354980e-05
"D" 3.000000000000001e-01
"S" 0.000000000000000e+00
"G" 8.000000000000000e-01
"B" 0.000000000000000e+00
"M1.n1" 7.999999987292725e-01
"Vb:p" 3.003611053088996e-13
"Vd:p" -2.725647909606001e-05
"Vg:p" -2.487397322262184e-10
"Vs:p" -1.002521901687493e-21
"vds" 3.100000000000001e-01
"M1:ids" 2.766552682680318e-05
"D" 3.100000000000001e-01
"S" 0.000000000000000e+00
"G" 8.000000000000000e-01
"B" 0.000000000000000e+00
"M1.n1" 7.999999987407920e-01
"Vb:p" 3.103620280679845e-13
"Vd:p" -2.766542014458716e-05
"Vg:p" -2.464848389739291e-10
"Vs:p" 2.054736335367364e-21
"vds" 3.200000000000001e-01
"M1:ids" 2.804405187273373e-05
"D" 3.200000000000001e-01
"S" 0.000000000000000e+00
"G" 8.000000000000000e-01
"B" 0.000000000000000e+00
"M1.n1" 7.999999987519120e-01
"Vb:p" 3.203629184141633e-13
"Vd:p" -2.804394659304051e-05
"Vg:p" -2.443081537274065e-10
"Vs:p" 2.018341695356164e-21
"vds" 3.300000000000001e-01
"M1:ids" 2.839278626524977e-05
"D" 3.300000000000001e-01
"S" 0.000000000000000e+00
"G" 8.000000000000000e-01
"B" 0.000000000000000e+00
"M1.n1" 7.999999987626077e-01
"Vb:p" 3.303637771925453e-13
"Vd:p" -2.839268233264999e-05
"Vg:p" -2.422144834894694e-10
"Vs:p" -3.138298322476011e-21
"vds" 3.400000000000001e-01
"M1:ids" 2.871249697389575e-05
"D" 3.400000000000001e-01
"S" 0.000000000000000e+00
"G" 8.000000000000000e-01
"B" 0.000000000000000e+00
"M1.n1" 7.999999987728525e-01
"Vb:p" 3.403646052480418e-13
"Vd:p" -2.871239433000669e-05
"Vg:p" -2.402091087725411e-10
"Vs:p" -2.481505153638708e-21
"vds" 3.500000000000001e-01
"M1:ids" 2.900411867026659e-05
"D" 3.500000000000001e-01
"S" 0.000000000000000e+00
"G" 8.000000000000000e-01
"B" 0.000000000000000e+00
"M1.n1" 7.999999987826175e-01
"Vb:p" 3.503654034233302e-13
"Vd:p" -2.900401725355518e-05
"Vg:p" -2.382976602303242e-10
"Vs:p" -7.229309338211704e-22
"vds" 3.600000000000002e-01
"M1:ids" 2.926877678245725e-05
"D" 3.600000000000002e-01
"S" 0.000000000000000e+00
"G" 8.000000000000000e-01
"B" 0.000000000000000e+00
"M1.n1" 7.999999987918731e-01
"Vb:p" 3.603661725569455e-13
"Vd:p" -2.926867652817204e-05
"Vg:p" -2.364859069966396e-10
"Vs:p" 8.354891026989327e-22
"vds" 3.700000000000002e-01
"M1:ids" 2.950780493398860e-05
"D" 3.700000000000002e-01
"S" 0.000000000000000e+00
"G" 8.000000000000000e-01
"B" 0.000000000000000e+00
"M1.n1" 7.999999988005909e-01
"Vb:p" 3.703669134815169e-13
"Vd:p" -2.950770577428235e-05
"Vg:p" -2.347794432711755e-10
"Vs:p" 3.366650014640998e-21
"vds" 3.800000000000002e-01
"M1:ids" 2.972275150148551e-05
"D" 3.800000000000002e-01
"S" 0.000000000000000e+00
"G" 8.000000000000000e-01
"B" 0.000000000000000e+00
"M1.n1" 7.999999988087452e-01
"Vb:p" 3.803676270221734e-13
"Vd:p" -2.972265336578625e-05
"Vg:p" -2.331832764444691e-10
"Vs:p" -5.723722998663204e-22
"vds" 3.900000000000002e-01
"M1:ids" 2.991536969261383e-05
"D" 3.900000000000002e-01
"S" 0.000000000000000e+00
"G" 8.000000000000000e-01
"B" 0.000000000000000e+00
"M1.n1" 7.999999988163159e-01
"Vb:p" 3.903683139951359e-13
"Vd:p" -2.991527250828405e-05
"Vg:p" -2.317013472091755e-10
"Vs:p" -3.852982371721827e-21
"vds" 4.000000000000002e-01
"M1:ids" 3.008758690203670e-05
"D" 4.000000000000002e-01
"S" 0.000000000000000e+00
"G" 8.000000000000000e-01
"B" 0.000000000000000e+00
"M1.n1" 7.999999988232908e-01
"Vb:p" 4.003689752065133e-13
"Vd:p" -3.008749059531984e-05
"Vg:p" -2.303360444852834e-10
"Vs:p" -8.123017273874942e-22
"vds" 4.100000000000002e-01
"M1:ids" 3.024145256701829e-05
"D" 4.100000000000002e-01
"S" 0.000000000000000e+00
"G" 8.000000000000000e-01
"B" 0.000000000000000e+00
"M1.n1" 7.999999988296675e-01
"Vb:p" 4.103696114513007e-13
"Vd:p" -3.024135706422261e-05
"Vg:p" -2.290878032901333e-10
"Vs:p" 3.482314150756035e-21
"vds" 4.200000000000002e-01
"M1:ids" 3.037906876136661e-05
"D" 4.200000000000002e-01
"S" 0.000000000000000e+00
"G" 8.000000000000000e-01
"B" 0.000000000000000e+00
"M1.n1" 7.999999988354554e-01
"Vb:p" 4.203702235125619e-13
"Vd:p" -3.037897399017754e-05
"Vg:p" -2.279548762975232e-10
"Vs:p" -2.466662952493550e-21
"vds" 4.300000000000002e-01
"M1:ids" 3.050251263329132e-05
"D" 4.300000000000002e-01
"S" 0.000000000000000e+00
"G" 8.000000000000000e-01
"B" 0.000000000000000e+00
"M1.n1" 7.999999988406740e-01
"Vb:p" 4.303708121607591e-13
"Vd:p" -3.050241852407182e-05
"Vg:p" -2.269333404109179e-10
"Vs:p" 8.175616660373414e-22
"vds" 4.400000000000002e-01
"M1:ids" 3.061376235765975e-05
"D" 4.400000000000002e-01
"S" 0.000000000000000e+00
"G" 8.000000000000000e-01
"B" 0.000000000000000e+00
"M1.n1" 7.999999988453536e-01
"Vb:p" 4.403713781531828e-13
"Vd:p" -3.061366884459276e-05
"Vg:p" -2.260173445192375e-10
"Vs:p" 3.185462173081289e-21
"vds" 4.500000000000002e-01
"M1:ids" 3.071463725305955e-05
"D" 4.500000000000002e-01
"S" 0.000000000000000e+00
"G" 8.000000000000000e-01
"B" 0.000000000000000e+00
"M1.n1" 7.999999988495314e-01
"Vb:p" 4.503719222334358e-13
"Vd:p" -3.071454427502097e-05
"Vg:p" -2.251995454240182e-10
"Vs:p" -3.395269193695229e-21
"vds" 4.600000000000002e-01
"M1:ids" 3.080675859899933e-05
"D" 4.600000000000002e-01
"S" 0.000000000000000e+00
"G" 8.000000000000000e-01
"B" 0.000000000000000e+00
"M1.n1" 7.999999988532500e-01
"Vb:p" 4.603724451309433e-13
"Vd:p" -3.080666610010743e-05
"Vg:p" -2.244716404335421e-10
"Vs:p" -1.915317498364302e-21
"vds" 4.700000000000003e-01
"M1:ids" 3.089153240256232e-05
"D" 4.700000000000003e-01
"S" 0.000000000000000e+00
"G" 8.000000000000000e-01
"B" 0.000000000000000e+00
"M1.n1" 7.999999988565540e-01
"Vb:p" 4.703729475604784e-13
"Vd:p" -3.089144033240310e-05
"Vg:p" -2.238248998241363e-10
"Vs:p" 7.826262996199145e-21
"vds" 4.800000000000003e-01
"M1:ids" 3.097015099260253e-05
"D" 4.800000000000003e-01
"S" 0.000000000000000e+00
"G" 8.000000000000000e-01
"B" 0.000000000000000e+00
"M1.n1" 7.999999988594878e-01
"Vb:p" 4.803734302217049e-13
"Vd:p" -3.097005930618162e-05
"Vg:p" -2.232506251751352e-10
"Vs:p" -7.106703022747104e-21
"vds" 4.900000000000003e-01
"M1:ids" 3.104360800172051e-05
"D" 4.900000000000003e-01
"S" 0.000000000000000e+00
"G" 8.000000000000000e-01
"B" 0.000000000000000e+00
"M1.n1" 7.999999988620938e-01
"Vb:p" 4.903738937987560e-13
"Vd:p" -3.104351665920856e-05
"Vg:p" -2.227404947511541e-10
"Vs:p" 1.435967901508693e-21
"vds" 5.000000000000002e-01
"M1:ids" 3.111272099666968e-05
"D" 5.000000000000002e-01
"S" 0.000000000000000e+00
"G" 8.000000000000000e-01
"B" 0.000000000000000e+00
"M1.n1" 7.999999988644116e-01
"Vb:p" 5.003743389598599e-13
"Vd:p" -3.111262996301459e-05
"Vg:p" -2.222867893985095e-10
"Vs:p" -7.212822841439584e-22
"vds" 5.100000000000002e-01
"M1:ids" 3.117815700999120e-05
"D" 5.100000000000002e-01
"S" 0.000000000000000e+00
"G" 8.000000000000000e-01
"B" 0.000000000000000e+00
"M1.n1" 7.999999988664770e-01
"Vb:p" 5.103747663570270e-13
"Vd:p" -3.117806625446184e-05
"Vg:p" -2.218825137482398e-10
"Vs:p" 1.177207777322137e-21
"vds" 5.200000000000002e-01
"M1:ids" 3.124045769482431e-05
"D" 5.200000000000002e-01
"S" 0.000000000000000e+00
"G" 8.000000000000000e-01
"B" 0.000000000000000e+00
"M1.n1" 7.999999988683216e-01
"Vb:p" 5.203751766258032e-13
"Vd:p" -3.124036719053190e-05
"Vg:p" -2.215214370480129e-10
"Vs:p" -5.311721093506985e-21
"vds" 5.300000000000002e-01
"M1:ids" 3.130006221064843e-05
"D" 5.300000000000002e-01
"S" 0.000000000000000e+00
"G" 8.000000000000000e-01
"B" 0.000000000000000e+00
"M1.n1" 7.999999988699735e-01
"Vb:p" 5.303755703850933e-13
"Vd:p" -3.129997193408066e-05
"Vg:p" -2.211980788535886e-10
"Vs:p" -4.289864318515273e-21
"vds" 5.400000000000003e-01
"M1:ids" 3.135732699878435e-05
"D" 5.400000000000003e-01
"S" 0.000000000000000e+00
"G" 8.000000000000000e-01
"B" 0.000000000000000e+00
"M1.n1" 7.999999988714572e-01
"Vb:p" 5.403759482370503e-13
"Vd:p" -3.135723692937042e-05
"Vg:p" -2.209076610733704e-10
"Vs:p" -3.896707757545829e-21
"vds" 5.500000000000003e-01
"M1:ids" 3.141254228764976e-05
"D" 5.500000000000003e-01
"S" 0.000000000000000e+00
"G" 8.000000000000000e-01
"B" 0.000000000000000e+00
"M1.n1" 7.999999988727937e-01
"Vb:p" 5.503763107670286e-13
"Vd:p" -3.141245240736735e-05
"Vg:p" -2.206460425503679e-10
"Vs:p" 5.146198519183390e-21
"vds" 5.600000000000003e-01
"M1:ids" 3.146594554725707e-05
"D" 5.600000000000003e-01
"S" 0.000000000000000e+00
"G" 8.000000000000000e-01
"B" 0.000000000000000e+00
"M1.n1" 7.999999988740014e-01
"Vb:p" 5.603766585435946e-13
"Vd:p" -3.146585584028398e-05
"Vg:p" -2.204096472686205e-10
"Vs:p" 2.209229331590914e-21
"vds" 5.700000000000003e-01
"M1:ids" 3.151773228407603e-05
"D" 5.700000000000003e-01
"S" 0.000000000000000e+00
"G" 8.000000000000000e-01
"B" 0.000000000000000e+00
"M1.n1" 7.999999988750959e-01
"Vb:p" 5.703769921185897e-13
"Vd:p" -3.151764273648718e-05
"Vg:p" -2.201953931462216e-10
"Vs:p" -2.891979979039324e-21
"vds" 5.800000000000003e-01
"M1:ids" 3.156806461305816e-05
"D" 5.800000000000003e-01
"S" 0.000000000000000e+00
"G" 8.000000000000000e-01
"B" 0.000000000000000e+00
"M1.n1" 7.999999988760910e-01
"Vb:p" 5.803773120272386e-13
"Vd:p" -3.156797521256225e-05
"Vg:p" -2.200006253709168e-10
"Vs:p" 6.120449460471336e-21
"vds" 5.900000000000003e-01
"M1:ids" 3.161707802212696e-05
"D" 5.900000000000003e-01
"S" 0.000000000000000e+00
"G" 8.000000000000000e-01
"B" 0.000000000000000e+00
"M1.n1" 7.999999988769980e-01
"Vb:p" 5.903776188020067e-13
"Vd:p" -3.161698875784198e-05
"Vg:p" -2.198230562066384e-10
"Vs:p" 1.448351506515930e-20
"vds" 6.000000000000003e-01
"M1:ids" 3.166488669308616e-05
"D" 6.000000000000003e-01
"S" 0.000000000000000e+00
"G" 8.000000000000000e-01
"B" 0.000000000000000e+00
"M1.n1" 7.999999988778275e-01
"Vb:p" 6.003779133944617e-13
"Vd:p" -3.166479755534641e-05
"Vg:p" -2.196607119210830e-10
"Vs:p" -1.965241027234509e-21
"vds" 6.100000000000003e-01
"M1:ids" 3.171158768296971e-05
"D" 6.100000000000003e-01
"S" 0.000000000000000e+00
"G" 8.000000000000000e-01
"B" 0.000000000000000e+00
"M1.n1" 7.999999988785877e-01
"Vb:p" 6.103781974134101e-13
"Vd:p" -3.171149866316222e-05
"Vg:p" -2.195118867340444e-10
"Vs:p" 4.905856473795765e-21
"vds" 6.200000000000003e-01
"M1:ids" 3.175726421229554e-05
"D" 6.200000000000003e-01
"S" 0.000000000000000e+00
"G" 8.000000000000000e-01
"B" 0.000000000000000e+00
"M1.n1" 7.999999988792865e-01
"Vb:p" 6.203784755451309e-13
"Vd:p" -3.175717530271952e-05
"Vg:p" -2.193751032854773e-10
"Vs:p" -2.246462232698008e-22
"vds" 6.300000000000003e-01
"M1:ids" 3.180198825618128e-05
"D" 6.300000000000003e-01
"S" 0.000000000000000e+00
"G" 8.000000000000000e-01
"B" 0.000000000000000e+00
"M1.n1" 7.999999988799303e-01
"Vb:p" 6.303787614979579e-13
"Vd:p" -3.180189944992921e-05
"Vg:p" -2.192490789411446e-10
"Vs:p" -3.644007417468538e-21
"vds" 6.400000000000003e-01
"M1:ids" 3.184582259220137e-05
"D" 6.400000000000003e-01
"S" 0.000000000000000e+00
"G" 8.000000000000000e-01
"B" 0.000000000000000e+00
"M1.n1" 7.999999988805249e-01
"Vb:p" 6.403790934982304e-13
"Vd:p" -3.184573388305732e-05
"Vg:p" -2.191326972034939e-10
"Vs:p" 5.123717025149469e-22
"vds" 6.500000000000004e-01
"M1:ids" 3.188882242488892e-05
"D" 6.500000000000004e-01
"S" 0.000000000000000e+00
"G" 8.000000000000000e-01
"B" 0.000000000000000e+00
"M1.n1" 7.999999988810751e-01
"Vb:p" 6.503795707025637e-13
"Vd:p" -3.188873380724192e-05
"Vg:p" -2.190249835178777e-10
"Vs:p" 3.365417695729249e-21
"vds" 6.600000000000004e-01
"M1:ids" 3.193103667989236e-05
"D" 6.600000000000004e-01
"S" 0.000000000000000e+00
"G" 8.000000000000000e-01
"B" 0.000000000000000e+00
"M1.n1" 7.999999988815855e-01
"Vb:p" 6.603804321142317e-13
"Vd:p" -3.193094814866138e-05
"Vg:p" -2.189250848236313e-10
"Vs:p" -6.645273836694686e-21
"vds" 6.700000000000004e-01
"M1:ids" 3.197250903978465e-05
"D" 6.700000000000004e-01
"S" 0.000000000000000e+00
"G" 8.000000000000000e-01
"B" 0.000000000000000e+00
"M1.n1" 7.999999988820597e-01
"Vb:p" 6.703822156825730e-13
"Vd:p" -3.197242059035582e-05
"Vg:p" -2.188322522737497e-10
"Vs:p" -1.120742339769308e-20
"vds" 6.800000000000004e-01
"M1:ids" 3.201327877723997e-05
"D" 6.800000000000004e-01
"S" 0.000000000000000e+00
"G" 8.000000000000000e-01
"B" 0.000000000000000e+00
"M1.n1" 7.999999988825013e-01
"Vb:p" 6.803860589062478e-13
"Vd:p" -3.201319040541216e-05
"Vg:p" -2.187458266239065e-10
"Vs:p" -5.947443592429638e-21
"vds" 6.900000000000004e-01
"M1:ids" 3.205338142872677e-05
"D" 6.900000000000004e-01
"S" 0.000000000000000e+00
"G" 8.000000000000000e-01
"B" 0.000000000000000e+00
"M1.n1" 7.999999988829131e-01
"Vb:p" 6.903942346210019e-13
"Vd:p" -3.205329313066500e-05
"Vg:p" -2.186652258645946e-10
"Vs:p" 1.323173810354745e-21
"vds" 7.000000000000004e-01
"M1:ids" 3.209284934219590e-05
"D" 7.000000000000004e-01
"S" 0.000000000000000e+00
"G" 8.000000000000000e-01
"B" 0.000000000000000e+00
"M1.n1" 7.999999988832976e-01
"Vb:p" 7.004110570991893e-13
"Vd:p" -3.209276111439286e-05
"Vg:p" -2.185899347363187e-10
"Vs:p" 2.552354189435567e-21
"vds" 7.100000000000004e-01
"M1:ids" 3.213171212480826e-05
"D" 7.100000000000004e-01
"S" 0.000000000000000e+00
"G" 8.000000000000000e-01
"B" 0.000000000000000e+00
"M1.n1" 7.999999988836575e-01
"Vb:p" 7.104443434096799e-13
"Vd:p" -3.213162396405196e-05
"Vg:p" -2.185194958261234e-10
"Vs:p" 5.188186876605142e-21
"vds" 7.200000000000004e-01
"M1:ids" 3.216999701102076e-05
"D" 7.200000000000004e-01
"S" 0.000000000000000e+00
"G" 8.000000000000000e-01
"B" 0.000000000000000e+00
"M1.n1" 7.999999988839946e-01
"Vb:p" 7.205076712587498e-13
"Vd:p" -3.216990891436951e-05
"Vg:p" -2.184535019948723e-10
"Vs:p" -7.448948237077395e-21
"vds" 7.300000000000004e-01
"M1:ids" 3.220772916693560e-05
"D" 7.300000000000004e-01
"S" 0.000000000000000e+00
"G" 8.000000000000000e-01
"B" 0.000000000000000e+00
"M1.n1" 7.999999988843109e-01
"Vb:p" 7.306237341760979e-13
"Vd:p" -3.220764113170012e-05
"Vg:p" -2.183915899305592e-10
"Vs:p" 5.387073604426672e-21
"vds" 7.400000000000004e-01
"M1:ids" 3.224493194341403e-05
"D" 7.400000000000004e-01
"S" 0.000000000000000e+00
"G" 8.000000000000000e-01
"B" 0.000000000000000e+00
"M1.n1" 7.999999988846080e-01
"Vb:p" 7.408291539331352e-13
"Vd:p" -3.224484396714794e-05
"Vg:p" -2.183334346687144e-10
"Vs:p" -1.224251158561047e-20
"vds" 7.500000000000004e-01
"M1:ids" 3.228162708781133e-05
"D" 7.500000000000004e-01
"S" 0.000000000000000e+00
"G" 8.000000000000000e-01
"B" 0.000000000000000e+00
"M1.n1" 7.999999988848874e-01
"Vb:p" 7.511811639621145e-13
"Vd:p" -3.228153916831035e-05
"Vg:p" -2.182787449817454e-10
"Vs:p" 5.206640365441110e-21
"vds" 7.600000000000005e-01
"M1:ids" 3.231783492213813e-05
"D" 7.600000000000005e-01
"S" 0.000000000000000e+00
"G" 8.000000000000000e-01
"B" 0.000000000000000e+00
"M1.n1" 7.999999988851505e-01
"Vb:p" 7.617666216960597e-13
"Vd:p" -3.231774705745143e-05
"Vg:p" -2.182272596715118e-10
"Vs:p" 1.407416087586450e-21
"vds" 7.700000000000005e-01
"M1:ids" 3.235357449385661e-05
"D" 7.700000000000005e-01
"S" 0.000000000000000e+00
"G" 8.000000000000000e-01
"B" 0.000000000000000e+00
"M1.n1" 7.999999988853983e-01
"Vb:p" 7.727138379805717e-13
"Vd:p" -3.235348668231041e-05
"Vg:p" -2.181787452446286e-10
"Vs:p" 1.128017571794073e-20
"vds" 7.800000000000005e-01
"M1:ids" 3.238886370426472e-05
"D" 7.800000000000005e-01
"S" 0.000000000000000e+00
"G" 8.000000000000000e-01
"B" 0.000000000000000e+00
"M1.n1" 7.999999988856320e-01
"Vb:p" 7.842077246328414e-13
"Vd:p" -3.238877594449860e-05
"Vg:p" -2.181329967172318e-10
"Vs:p" 1.152825404679113e-21
"vds" 7.900000000000005e-01
"M1:ids" 3.242371941843962e-05
"D" 7.900000000000005e-01
"S" 0.000000000000000e+00
"G" 8.000000000000000e-01
"B" 0.000000000000000e+00
"M1.n1" 7.999999988858526e-01
"Vb:p" 7.965087545554452e-13
"Vd:p" -3.242363170948230e-05
"Vg:p" -2.180898171629658e-10
"Vs:p" -1.495618538333407e-22
"vds" 8.000000000000005e-01
"M1:ids" 3.245815755993825e-05
"D" 8.000000000000005e-01
"S" 0.000000000000000e+00
"G" 8.000000000000000e-01
"B" 0.000000000000000e+00
"M1.n1" 7.999999988860621e-01
"Vb:p" 8.099762015352710e-13
"Vd:p" -3.245806990151061e-05
"Vg:p" -2.180488117011049e-10
"Vs:p" 5.191026372001436e-21
"vds" 8.100000000000005e-01
"M1:ids" 3.249219319283593e-05
"D" 8.100000000000005e-01
"S" 0.000000000000000e+00
"G" 8.000000000000000e-01
"B" 0.000000000000000e+00
"M1.n1" 7.999999988862626e-01
"Vb:p" 8.250960792526943e-13
"Vd:p" -3.249210558551796e-05
"Vg:p" -2.180095515807428e-10
"Vs:p" 1.336545664800600e-21
"vds" 8.200000000000005e-01
"M1:ids" 3.252584059320038e-05
"D" 8.200000000000005e-01
"S" 0.000000000000000e+00
"G" 8.000000000000000e-01
"B" 0.000000000000000e+00
"M1.n1" 7.999999988864553e-01
"Vb:p" 8.425141325849730e-13
"Vd:p" -3.252575303838000e-05
"Vg:p" -2.179718244578778e-10
"Vs:p" -5.495707702483263e-21
"vds" 8.300000000000005e-01
"M1:ids" 3.255911331170857e-05
"D" 8.300000000000005e-01
"S" 0.000000000000000e+00
"G" 8.000000000000000e-01
"B" 0.000000000000000e+00
"M1.n1" 7.999999988866411e-01
"Vb:p" 8.630741515316618e-13
"Vd:p" -3.255902581171716e-05
"Vg:p" -2.179354845397948e-10
"Vs:p" 9.958247944620707e-22
"vds" 8.400000000000005e-01
"M1:ids" 3.259202422880184e-05
"D" 8.400000000000005e-01
"S" 0.000000000000000e+00
"G" 8.000000000000000e-01
"B" 0.000000000000000e+00
"M1.n1" 7.999999988868203e-01
"Vb:p" 8.878617823240901e-13
"Vd:p" -3.259193678714113e-05
"Vg:p" -2.179004057770970e-10
"Vs:p" 3.196176908805913e-21
"vds" 8.500000000000005e-01
"M1:ids" 3.262458560352608e-05
"D" 8.500000000000005e-01
"S" 0.000000000000000e+00
"G" 8.000000000000000e-01
"B" 0.000000000000000e+00
"M1.n1" 7.999999988869936e-01
"Vb:p" 9.182539053241968e-13
"Vd:p" -3.262449822515166e-05
"Vg:p" -2.178664739759104e-10
"Vs:p" 7.923410725805393e-21
"vds" 8.600000000000005e-01
"M1:ids" 3.265680911700490e-05
"D" 8.600000000000005e-01
"S" 0.000000000000000e+00
"G" 8.000000000000000e-01
"B" 0.000000000000000e+00
"M1.n1" 7.999999988871616e-01
"Vb:p" 9.559735392247930e-13
"Vd:p" -3.265672180866519e-05
"Vg:p" -2.178335843590813e-10
"Vs:p" -1.585418114897308e-21