HEADER
"PSFversion" "1.00"
"simulator" "spectre"
"version" "23.1.0.242.isr1"
"date" "2:57:56 PM, Fri Nov 29, 2024"
"design" "# Simulate DC sweeps of gate to source voltage"
"analysis type" "dc"
"analysis name" "vgs-000_vds"
"analysis description" "DC Analysis `vgs-000_vds': vds = (0 -> 1.2)"
"xVecSorted" "unsorted"
"tolerance.relative" 1.000000000000000e-03
"reltol" 1.000000000000000e-03
"abstol(V)" 1.000000000000000e-06
"abstol(I)" 1.000000000000000e-12
"temp" 2.700000000000000e+01
"tnom" 2.700000000000000e+01
"tempeffects" "all"
"gmindc" 1.000000000000000e-12
TYPE
"sweep" FLOAT DOUBLE PROP(
"key" "sweep"
)
"LogicV" FLOAT DOUBLE PROP(
"key" "node"
)
"Real" FLOAT DOUBLE PROP(
"units" ""
"key" "node"
"tolerance" 1.000000000000000e-06
)
"Tau" FLOAT DOUBLE PROP(
"units" "N*m"
"key" "node"
"tolerance" 1.000000000000000e-06
)
"Alpha" FLOAT DOUBLE PROP(
"units" "rads/s^2"
"key" "node"
"tolerance" 1.000000000000000e-06
)
"Omega" FLOAT DOUBLE PROP(
"units" "rads/s"
"key" "node"
"tolerance" 1.000000000000000e-06
)
"Theta" FLOAT DOUBLE PROP(
"units" "rads"
"key" "node"
"tolerance" 1.000000000000000e-06
)
"F" FLOAT DOUBLE PROP(
"units" "N"
"key" "node"
"tolerance" 1.000000000000000e-06
)
"Imp" FLOAT DOUBLE PROP(
"units" "m/s^3"
"key" "node"
"tolerance" 1.000000000000000e-06
)
"Acc" FLOAT DOUBLE PROP(
"units" "m/s^2"
"key" "node"
"tolerance" 1.000000000000000e-06
)
"Vel" FLOAT DOUBLE PROP(
"units" "m/s"
"key" "node"
"tolerance" 1.000000000000000e-06
)
"Pos" FLOAT DOUBLE PROP(
"units" "m"
"key" "node"
"tolerance" 1.000000000000000e-06
)
"Phi" FLOAT DOUBLE PROP(
"units" "Wb"
"key" "node"
"tolerance" 1.000000000000000e-09
)
"V" FLOAT DOUBLE PROP(
"units" "V"
"key" "node"
"tolerance" 1.000000000000000e-06
)
"I" FLOAT DOUBLE PROP(
"units" "A"
"key" "branch"
"tolerance" 1.000000000000000e-12
)
"MMF" FLOAT DOUBLE PROP(
"units" "A*turn"
"key" "node"
"tolerance" 1.000000000000000e-12
)
"Wb" FLOAT DOUBLE PROP(
"units" "Wb"
"key" "node"
"tolerance" 1.000000000000000e-09
)
"Temp" FLOAT DOUBLE PROP(
"units" "C"
"key" "node"
"tolerance" 1.000000000000000e-04
)
"Pwr" FLOAT DOUBLE PROP(
"units" "W"
"key" "node"
"tolerance" 1.000000000000000e-09
)
"U" FLOAT DOUBLE PROP(
"units" ""
"key" "node"
"tolerance" 1.000000000000000e-06
)
"V/Sec" FLOAT DOUBLE PROP(
"units" "V/s"
"key" "node"
"tolerance" 9.999999999999999e-05
)
"I/Sec" FLOAT DOUBLE PROP(
"units" "A/s"
"key" "node"
"tolerance" 1.000000000000000e-06
)
"1/Sec" FLOAT DOUBLE PROP(
"units" "1/s"
"key" "node"
"tolerance" 9.999999999999999e-05
)
"HOD" FLOAT DOUBLE PROP(
"units" ""
"key" "node"
"tolerance" 1.000000000000000e-02
)
"Q" FLOAT DOUBLE PROP(
"units" "coul"
"key" "node"
"tolerance" 1.000000000000000e-14
)
"A" FLOAT DOUBLE PROP(
"key" "inst"
)
SWEEP
"vds" "sweep" PROP(
"sweep_direction" 0
"plot" 0
"grid" 1
)
TRACE
"M1:ids" "A"
"D" "V"
"S" "V"
"G" "V"
"B" "V"
"M1.n1" "V"
"Vb:p" "I"
"Vd:p" "I"
"Vg:p" "I"
"Vs:p" "I"
VALUE
"vds" 0.000000000000000e+00
"M1:ids" 0.000000000000000e+00
"D" 0.000000000000000e+00
"S" 0.000000000000000e+00
"G" 0.000000000000000e+00
"B" 0.000000000000000e+00
"M1.n1" 0.000000000000000e+00
"Vb:p" 0.000000000000000e+00
"Vd:p" 0.000000000000000e+00
"Vg:p" 0.000000000000000e+00
"Vs:p" 0.000000000000000e+00
"vds" 1.000000000000000e-02
"M1:ids" 1.407924099403585e-12
"D" 1.000000000000000e-02
"S" 0.000000000000000e+00
"G" 0.000000000000000e+00
"B" 0.000000000000000e+00
"M1.n1" 1.776777956220022e-15
"Vb:p" 1.000071866183289e-14
"Vd:p" -1.428272615099670e-12
"Vg:p" 3.477970373857622e-16
"Vs:p" -2.524354896707238e-29
"vds" 2.000000000000000e-02
"M1:ids" 2.472879773698093e-12
"D" 2.000000000000000e-02
"S" 0.000000000000000e+00
"G" 0.000000000000000e+00
"B" 0.000000000000000e+00
"M1.n1" 4.967968390211461e-15
"Vb:p" 2.000120687684174e-14
"Vd:p" -2.513853440117102e-12
"Vg:p" 9.724595478534135e-16
"Vs:p" -2.271919407036514e-28
"vds" 3.000000000000000e-02
"M1:ids" 3.223246214676634e-12
"D" 3.000000000000000e-02
"S" 0.000000000000000e+00
"G" 0.000000000000000e+00
"B" 0.000000000000000e+00
"M1.n1" 9.675621395166462e-15
"Vb:p" 3.000153854033536e-14
"Vd:p" -3.285141716630615e-12
"Vg:p" 1.893963420879112e-15
"Vs:p" -2.524354896707236e-28
"vds" 4.000000000000000e-02
"M1:ids" 3.718489211399592e-12
"D" 4.000000000000000e-02
"S" 0.000000000000000e+00
"G" 0.000000000000000e+00
"B" 0.000000000000000e+00
"M1.n1" 1.595804950842586e-14
"Vb:p" 4.000176385227899e-14
"Vd:p" -3.801614698341386e-12
"Vg:p" 3.123723097788247e-15
"Vs:p" -4.291403324402297e-28
"vds" 5.000000000000000e-02
"M1:ids" 4.037751772543867e-12
"D" 5.000000000000000e-02
"S" 0.000000000000000e+00
"G" 0.000000000000000e+00
"B" 0.000000000000000e+00
"M1.n1" 2.386401718547662e-14
"Vb:p" 5.000191691546687e-14
"Vd:p" -4.142424973471898e-12
"Vg:p" 4.671284021830284e-15
"Vs:p" 1.893266172530452e-28
"vds" 6.000000000000000e-02
"M1:ids" 4.252750623589808e-12
"D" 6.000000000000000e-02
"S" 0.000000000000000e+00
"G" 0.000000000000000e+00
"B" 0.000000000000000e+00
"M1.n1" 3.343992103743913e-14
"Vb:p" 6.000202089725713e-14
"Vd:p" -4.379298372617773e-12
"Vg:p" 6.545728140378444e-15
"Vs:p" 1.483058501815503e-27
"vds" 7.000000000000001e-02
"M1:ids" 4.411315005739772e-12
"D" 7.000000000000001e-02
"S" 0.000000000000000e+00
"G" 0.000000000000000e+00
"B" 0.000000000000000e+00
"M1.n1" 4.473187559565384e-14
"Vb:p" 7.000209153613971e-14
"Vd:p" -4.560073179450893e-12
"Vg:p" 8.756082184839618e-15
"Vs:p" -2.461246024289534e-28
"vds" 8.000000000000000e-02
"M1:ids" 4.539866311609036e-12
"D" 8.000000000000000e-02
"S" 0.000000000000000e+00
"G" 0.000000000000000e+00
"B" 0.000000000000000e+00
"M1.n1" 5.778647592438871e-14
"Vb:p" 8.000213952388463e-14
"Vd:p" -4.711179918071526e-12
"Vg:p" 1.131146694898113e-14
"Vs:p" 3.360547456241604e-28
"vds" 9.000000000000000e-02
"M1:ids" 4.651927872799562e-12
"D" 9.000000000000000e-02
"S" 0.000000000000000e+00
"G" 0.000000000000000e+00
"B" 0.000000000000000e+00
"M1.n1" 7.265113086206010e-14
"Vb:p" 9.000217212382824e-14
"Vd:p" -4.846151207432354e-12
"Vg:p" 1.422116251954041e-14
"Vs:p" -7.857054616001254e-28
"vds" 9.999999999999999e-02
"M1:ids" 4.754392811127596e-12
"D" 9.999999999999999e-02
"S" 0.000000000000000e+00
"G" 0.000000000000000e+00
"B" 0.000000000000000e+00
"M1.n1" 8.937423301178001e-14
"Vb:p" 1.000021942702382e-13
"Vd:p" -4.971889646938480e-12
"Vg:p" 1.749464155118124e-14
"Vs:p" -4.583281859334265e-28
"vds" 1.100000000000000e-01
"M1:ids" 4.850881190286732e-12
"D" 1.100000000000000e-01
"S" 0.000000000000000e+00
"G" 0.000000000000000e+00
"B" 0.000000000000000e+00
"M1.n1" 1.080052589794666e-13
"Vb:p" 1.100022093151550e-13
"Vd:p" -5.092024988478288e-12
"Vg:p" 2.114158888769498e-14
"Vs:p" 1.211690350419476e-27
"vds" 1.200000000000000e-01
"M1:ids" 4.943373560519547e-12
"D" 1.200000000000000e-01
"S" 0.000000000000000e+00
"G" 0.000000000000000e+00
"B" 0.000000000000000e+00
"M1.n1" 1.285948370866349e-13
"Vb:p" 1.200022195357504e-13
"Vd:p" -5.208547694860219e-12
"Vg:p" 2.517191481650318e-14
"Vs:p" 1.324497459866060e-27
"vds" 1.300000000000000e-01
"M1:ids" 5.032998854547014e-12
"D" 1.300000000000000e-01
"S" 0.000000000000000e+00
"G" 0.000000000000000e+00
"B" 0.000000000000000e+00
"M1.n1" 1.511947989070751e-13
"Vb:p" 1.300022264789960e-13
"Vd:p" -5.322596846171380e-12
"Vg:p" 2.959576515675206e-14
"Vs:p" -5.551608620492847e-28
"vds" 1.400000000000000e-01
"M1:ids" 5.120424572005153e-12
"D" 1.400000000000000e-01
"S" 0.000000000000000e+00
"G" 0.000000000000000e+00
"B" 0.000000000000000e+00
"M1.n1" 1.758582223993312e-13
"Vb:p" 1.400022311958100e-13
"Vd:p" -5.434850332891193e-12
"Vg:p" 3.442352970231941e-14
"Vs:p" 3.021337266996316e-28
"vds" 1.500000000000000e-01
"M1:ids" 5.206057690333258e-12
"D" 1.500000000000000e-01
"S" 0.000000000000000e+00
"G" 0.000000000000000e+00
"B" 0.000000000000000e+00
"M1.n1" 2.026394705803115e-13
"Vb:p" 1.500022344001221e-13
"Vd:p" -5.545725774513544e-12
"Vg:p" 3.966584979201590e-14
"Vs:p" 5.493430128732844e-28
"vds" 1.600000000000000e-01
"M1:ids" 5.290152527553149e-12
"D" 1.600000000000000e-01
"S" 0.000000000000000e+00
"G" 0.000000000000000e+00
"B" 0.000000000000000e+00
"M1.n1" 2.315942278579351e-13
"Vb:p" 1.600022365769326e-13
"Vd:p" -5.655488389539563e-12
"Vg:p" 4.533362542155261e-14
"Vs:p" 1.829368439207511e-27
"vds" 1.700000000000000e-01
"M1:ids" 5.372871035870150e-12
"D" 1.700000000000000e-01
"S" 0.000000000000000e+00
"G" 0.000000000000000e+00
"B" 0.000000000000000e+00
"M1.n1" 2.627795352166228e-13
"Vb:p" 1.700022380557210e-13
"Vd:p" -5.764311296044542e-12
"Vg:p" 5.143802213095720e-14
"Vs:p" 3.158401849278649e-28
"vds" 1.800000000000000e-01
"M1:ids" 5.454317786819921e-12
"D" 1.800000000000000e-01
"S" 0.000000000000000e+00
"G" 0.000000000000000e+00
"B" 0.000000000000000e+00
"M1.n1" 2.962538249588175e-13
"Vb:p" 1.800022390603158e-13
"Vd:p" -5.872310503672839e-12
"Vg:p" 5.799047780508496e-14
"Vs:p" 4.283514715349936e-28
"vds" 1.900000000000000e-01
"M1:ids" 5.534560967889243e-12
"D" 1.900000000000000e-01
"S" 0.000000000000000e+00
"G" 0.000000000000000e+00
"B" 0.000000000000000e+00
"M1.n1" 3.320769554340184e-13
"Vb:p" 1.900022397427721e-13
"Vd:p" -5.979565917091010e-12
"Vg:p" 6.500270947168538e-14
"Vs:p" 1.265135676748221e-28
"vds" 2.000000000000000e-01
"M1:ids" 5.613645368163516e-12
"D" 2.000000000000000e-01
"S" 0.000000000000000e+00
"G" 0.000000000000000e+00
"B" 0.000000000000000e+00
"M1.n1" 3.703102460308916e-13
"Vb:p" 2.000022402063872e-13
"Vd:p" -6.086134328507978e-12
"Vg:p" 7.248672015096530e-14
"Vs:p" -1.227664783749633e-28
"vds" 2.100000000000000e-01
"M1:ids" 5.691600624308155e-12
"D" 2.100000000000000e-01
"S" 0.000000000000000e+00
"G" 0.000000000000000e+00
"B" 0.000000000000000e+00
"M1.n1" 4.110165126155240e-13
"Vb:p" 2.100022405213348e-13
"Vd:p" -6.192057670608880e-12
"Vg:p" 8.045480579248247e-14
"Vs:p" 1.022758163619262e-27
"vds" 2.200000000000001e-01
"M1:ids" 5.768446577651976e-12
"D" 2.200000000000001e-01
"S" 0.000000000000000e+00
"G" 0.000000000000000e+00
"B" 0.000000000000000e+00
"M1.n1" 4.542601035425676e-13
"Vb:p" 2.200022407352865e-13
"Vd:p" -6.297368380698151e-12
"Vg:p" 8.891956232417996e-14
"Vs:p" -4.126728610430329e-28
"vds" 2.300000000000001e-01
"M1:ids" 5.844196822036153e-12
"D" 2.300000000000001e-01
"S" 0.000000000000000e+00
"G" 0.000000000000000e+00
"B" 0.000000000000000e+00
"M1.n1" 5.001069363309156e-13
"Vb:p" 2.300022408806278e-13
"Vd:p" -6.402092955734801e-12
"Vg:p" 9.789389283150056e-14
"Vs:p" 1.251133395682701e-27
"vds" 2.400000000000001e-01
"M1:ids" 5.918861090252915e-12
"D" 2.400000000000001e-01
"S" 0.000000000000000e+00
"G" 0.000000000000000e+00
"B" 0.000000000000000e+00
"M1.n1" 5.486245350731209e-13
"Vb:p" 2.400022409793593e-13
"Vd:p" -6.506254346098182e-12
"Vg:p" 1.073910148801274e-13
"Vs:p" 1.114660459077999e-27
"vds" 2.500000000000001e-01
"M1:ids" 5.992446877997509e-12
"D" 2.500000000000001e-01
"S" 0.000000000000000e+00
"G" 0.000000000000000e+00
"B" 0.000000000000000e+00
"M1.n1" 5.998820686332914e-13
"Vb:p" 2.500022410464271e-13
"Vd:p" -6.609873587023153e-12
"Vg:p" 1.174244679930665e-13
"Vs:p" -5.064487011555812e-28
"vds" 2.600000000000001e-01
"M1:ids" 6.064960556928205e-12
"D" 2.600000000000001e-01
"S" 0.000000000000000e+00
"G" 0.000000000000000e+00
"B" 0.000000000000000e+00
"M1.n1" 6.539503896787341e-13
"Vb:p" 2.600022410919856e-13
"Vd:p" -6.712970919297093e-12
"Vg:p" 1.280081212909316e-13
"Vs:p" 3.605094336690953e-28
"vds" 2.700000000000001e-01
"M1:ids" 6.136408139052242e-12
"D" 2.700000000000001e-01
"S" 0.000000000000000e+00
"G" 0.000000000000000e+00
"B" 0.000000000000000e+00
"M1.n1" 7.109020745842734e-13
"Vb:p" 2.700022411229361e-13
"Vd:p" -6.815566561463493e-12
"Vg:p" 1.391561813030520e-13
"Vs:p" 5.033918651404664e-28
"vds" 2.800000000000001e-01
"M1:ids" 6.206795799215808e-12
"D" 2.800000000000001e-01
"S" 0.000000000000000e+00
"G" 0.000000000000000e+00
"B" 0.000000000000000e+00
"M1.n1" 7.708114642440186e-13
"Vb:p" 2.800022411439752e-13
"Vd:p" -6.917681240301070e-12
"Vg:p" 1.508831999562094e-13
"Vs:p" -1.191179967052798e-28
"vds" 2.900000000000001e-01
"M1:ids" 6.276130227343090e-12
"D" 2.900000000000001e-01
"S" 0.000000000000000e+00
"G" 0.000000000000000e+00
"B" 0.000000000000000e+00
"M1.n1" 8.337547058226704e-13
"Vb:p" 2.900022411583154e-13
"Vd:p" -7.019336551234131e-12
"Vg:p" 1.632040827472855e-13
"Vs:p" -1.128366917362058e-27
"vds" 3.000000000000001e-01
"M1:ids" 6.344418859358248e-12
"D" 3.000000000000001e-01
"S" 0.000000000000000e+00
"G" 0.000000000000000e+00
"B" 0.000000000000000e+00
"M1.n1" 8.998097954765954e-13
"Vb:p" 3.000022411681919e-13
"Vd:p" -7.120555197617440e-12
"Vg:p" 1.761340971057390e-13
"Vs:p" 5.896735264772151e-28
"vds" 3.100000000000001e-01
"M1:ids" 6.411670020794411e-12
"D" 3.100000000000001e-01
"S" 0.000000000000000e+00
"G" 0.000000000000000e+00
"B" 0.000000000000000e+00
"M1.n1" 9.690566220737841e-13
"Vb:p" 3.100022411752396e-13
"Vd:p" -7.221361142906347e-12
"Vg:p" 1.896888809516079e-13
"Vs:p" -9.769056235596236e-28
"vds" 3.200000000000001e-01
"M1:ids" 6.477893007096794e-12
"D" 3.200000000000001e-01
"S" 0.000000000000000e+00
"G" 0.000000000000000e+00
"B" 0.000000000000000e+00
"M1.n1" 1.041577011941371e-12
"Vb:p" 3.200022411808115e-13
"Vd:p" -7.321779699717175e-12
"Vg:p" 2.038844514546548e-13
"Vs:p" -1.536799650683423e-27
"vds" 3.300000000000001e-01
"M1:ids" 6.543098117810137e-12
"D" 3.300000000000001e-01
"S" 0.000000000000000e+00
"G" 0.000000000000000e+00
"B" 0.000000000000000e+00
"M1.n1" 1.117454774668764e-12
"Vb:p" 3.300022411862998e-13
"Vd:p" -7.421837572981342e-12
"Vg:p" 2.187372140001426e-13
"Vs:p" -9.194173836643882e-28
"vds" 3.400000000000001e-01
"M1:ids" 6.607296657148130e-12
"D" 3.400000000000001e-01
"S" 0.000000000000000e+00
"G" 0.000000000000000e+00
"B" 0.000000000000000e+00
"M1.n1" 1.196775749994720e-12
"Vb:p" 3.400022411935262e-13
"Vd:p" -7.521562869693047e-12
"Vg:p" 2.342639713667878e-13
"Vs:p" 2.807358749457880e-28
"vds" 3.500000000000001e-01
"M1:ids" 6.670500910135675e-12
"D" 3.500000000000001e-01
"S" 0.000000000000000e+00
"G" 0.000000000000000e+00
"B" 0.000000000000000e+00
"M1.n1" 1.279627855806621e-12
"Vb:p" 3.500022412052745e-13
"Vd:p" -7.620985084447244e-12
"Vg:p" 2.504819331224231e-13
"Vs:p" -9.699044815985329e-28
"vds" 3.600000000000002e-01
"M1:ids" 6.732724101165218e-12
"D" 3.600000000000002e-01
"S" 0.000000000000000e+00
"G" 0.000000000000000e+00
"B" 0.000000000000000e+00
"M1.n1" 1.366101137280602e-12
"Vb:p" 3.600022412260504e-13
"Vd:p" -7.720135067617889e-12
"Vg:p" 2.674087252429782e-13
"Vs:p" -1.086754499973073e-27
"vds" 3.700000000000002e-01
"M1:ids" 6.793980340118383e-12
"D" 3.700000000000002e-01
"S" 0.000000000000000e+00
"G" 0.000000000000000e+00
"B" 0.000000000000000e+00
"M1.n1" 1.456287817191520e-12
"Vb:p" 3.700022412631670e-13
"Vd:p" -7.819044981326113e-12
"Vg:p" 2.850623999604488e-13
"Vs:p" 6.327650678163929e-28
"vds" 3.800000000000002e-01
"M1:ids" 6.854284559955329e-12
"D" 3.800000000000002e-01
"S" 0.000000000000000e+00
"G" 0.000000000000000e+00
"B" 0.000000000000000e+00
"M1.n1" 1.550282347422208e-12
"Vb:p" 3.800022413282711e-13
"Vd:p" -7.917748247112617e-12
"Vg:p" 3.034614458456247e-13
"Vs:p" -7.711114890333088e-29
"vds" 3.900000000000002e-01
"M1:ids" 6.913652448754413e-12
"D" 3.900000000000002e-01
"S" 0.000000000000000e+00
"G" 0.000000000000000e+00
"B" 0.000000000000000e+00
"M1.n1" 1.648181461702056e-12
"Vb:p" 3.900022414394336e-13
"Vd:p" -8.016279488308540e-12
"Vg:p" 3.226247981314513e-13
"Vs:p" -8.940752527747386e-28
"vds" 4.000000000000002e-01
"M1:ids" 6.972100378502073e-12
"D" 4.000000000000002e-01
"S" 0.000000000000000e+00
"G" 0.000000000000000e+00
"B" 0.000000000000000e+00
"M1.n1" 1.750084229605507e-12
"Vb:p" 4.000022416239485e-13
"Vd:p" -8.114674469392705e-12
"Vg:p" 3.425718492830153e-13
"Vs:p" -2.650573751798262e-28
"vds" 4.100000000000002e-01
"M1:ids" 7.029645332395108e-12
"D" 4.100000000000002e-01
"S" 0.000000000000000e+00
"G" 0.000000000000000e+00
"B" 0.000000000000000e+00
"M1.n1" 1.856092111841652e-12
"Vb:p" 4.100022419219776e-13
"Vd:p" -8.212970034120861e-12
"Vg:p" 3.633224598202565e-13
"Vs:p" -8.939766451615859e-28
"vds" 4.200000000000002e-01
"M1:ids" 7.086304832019683e-12
"D" 4.200000000000002e-01
"S" 0.000000000000000e+00
"G" 0.000000000000000e+00
"B" 0.000000000000000e+00
"M1.n1" 1.966309016867007e-12
"Vb:p" 4.200022423911936e-13
"Vd:p" -8.311204043793944e-12
"Vg:p" 3.848969693996884e-13
"Vs:p" -1.064074517732791e-27
"vds" 4.300000000000002e-01
"M1:ids" 7.142096865457441e-12
"D" 4.300000000000002e-01
"S" 0.000000000000000e+00
"G" 0.000000000000000e+00
"B" 0.000000000000000e+00
"M1.n1" 2.080841358853922e-12
"Vb:p" 4.300022431125625e-13
"Vd:p" -8.409415316714136e-12
"Vg:p" 4.073162081614788e-13
"Vs:p" 3.443388012774011e-28
"vds" 4.400000000000002e-01
"M1:ids" 7.197039817119292e-12
"D" 4.400000000000002e-01
"S" 0.000000000000000e+00
"G" 0.000000000000000e+00
"B" 0.000000000000000e+00
"M1.n1" 2.199798117048152e-12
"Vb:p" 4.400022441974010e-13
"Vd:p" -8.507643569647651e-12
"Vg:p" 4.306015083484508e-13
"Vs:p" 1.460329682781023e-27
"vds" 4.500000000000002e-01
"M1:ids" 7.251152399915466e-12
"D" 4.500000000000002e-01
"S" 0.000000000000000e+00
"G" 0.000000000000000e+00
"B" 0.000000000000000e+00
"M1.n1" 2.323290896549799e-12
"Vb:p" 4.500022457958277e-13
"Vd:p" -8.605929361897950e-12
"Vg:p" 4.547747162037043e-13
"Vs:p" 5.967249871415485e-28
"vds" 4.600000000000002e-01
"M1:ids" 7.304453590208773e-12
"D" 4.600000000000002e-01
"S" 0.000000000000000e+00
"G" 0.000000000000000e+00
"B" 0.000000000000000e+00
"M1.n1" 2.451433990552516e-12
"Vb:p" 4.600022481067123e-13
"Vd:p" -8.704314042451392e-12
"Vg:p" 4.798582041536878e-13
"Vs:p" 1.264183172637799e-28
"vds" 4.700000000000003e-01
"M1:ids" 7.356962565878361e-12
"D" 4.700000000000003e-01
"S" 0.000000000000000e+00
"G" 0.000000000000000e+00
"B" 0.000000000000000e+00
"M1.n1" 2.584344444076880e-12
"Vb:p" 4.700022513891949e-13
"Vd:p" -8.802839700533390e-12
"Vg:p" 5.058748832837438e-13
"Vs:p" 6.339587253213983e-28
"vds" 4.800000000000003e-01
"M1:ids" 7.408698647722761e-12
"D" 4.800000000000003e-01
"S" 0.000000000000000e+00
"G" 0.000000000000000e+00
"B" 0.000000000000000e+00
"M1.n1" 2.722142119234764e-12
"Vb:p" 4.800022559758319e-13
"Vd:p" -8.901549119793896e-12
"Vg:p" 5.328482161133459e-13
"Vs:p" -3.205631538776621e-27
"vds" 4.900000000000003e-01
"M1:ids" 7.459681244337008e-12
"D" 4.900000000000003e-01
"S" 0.000000000000000e+00
"G" 0.000000000000000e+00
"B" 0.000000000000000e+00
"M1.n1" 2.864949762062075e-12
"Vb:p" 4.900022622873845e-13
"Vd:p" -9.000485736284543e-12
"Vg:p" 5.608022296783332e-13
"Vs:p" 3.349929425546568e-27
"vds" 5.000000000000002e-01
"M1:ids" 7.509929800546741e-12
"D" 5.000000000000002e-01
"S" 0.000000000000000e+00
"G" 0.000000000000000e+00
"B" 0.000000000000000e+00
"M1.n1" 3.012893070958647e-12
"Vb:p" 5.000022708492437e-13
"Vd:p" -9.099693600305406e-12
"Vg:p" 5.897615289277398e-13
"Vs:p" 2.853017428547090e-27
"vds" 5.100000000000002e-01
"M1:ids" 7.559463749421455e-12
"D" 5.100000000000002e-01
"S" 0.000000000000000e+00
"G" 0.000000000000000e+00
"B" 0.000000000000000e+00
"M1.n1" 3.166100766774673e-12
"Vb:p" 5.100022823094520e-13
"Vd:p" -9.199217342156016e-12
"Vg:p" 6.197513104429297e-13
"Vs:p" 1.160382349618646e-27
"vds" 5.200000000000002e-01
"M1:ids" 7.608302467846618e-12
"D" 5.200000000000002e-01
"S" 0.000000000000000e+00
"G" 0.000000000000000e+00
"B" 0.000000000000000e+00
"M1.n1" 3.324704664584128e-12
"Vb:p" 5.200022974582522e-13
"Vd:p" -9.299102141773878e-12
"Vg:p" 6.507973764869491e-13
"Vs:p" 7.273887303877831e-28
"vds" 5.300000000000002e-01
"M1:ids" 7.656465235600799e-12
"D" 5.300000000000002e-01
"S" 0.000000000000000e+00
"G" 0.000000000000000e+00
"B" 0.000000000000000e+00
"M1.n1" 3.488839747186782e-12
"Vb:p" 5.300023172490671e-13
"Vd:p" -9.399393702223431e-12
"Vg:p" 6.829261493922485e-13
"Vs:p" -6.667184415678190e-29
"vds" 5.400000000000003e-01
"M1:ids" 7.703971197854494e-12
"D" 5.400000000000003e-01
"S" 0.000000000000000e+00
"G" 0.000000000000000e+00
"B" 0.000000000000000e+00
"M1.n1" 3.658644240381172e-12
"Vb:p" 5.400023428207891e-13
"Vd:p" -9.500138226952157e-12
"Vg:p" 7.161646862950572e-13
"Vs:p" 1.893234069772277e-27
"vds" 5.500000000000003e-01
"M1:ids" 7.750839330996734e-12
"D" 5.500000000000003e-01
"S" 0.000000000000000e+00
"G" 0.000000000000000e+00
"B" 0.000000000000000e+00
"M1.n1" 3.834259690052210e-12
"Vb:p" 5.500023755212327e-13
"Vd:p" -9.601382400724009e-12
"Vg:p" 7.505406942249699e-13
"Vs:p" 1.448039701480713e-27
"vds" 5.600000000000003e-01
"M1:ids" 7.797088411652951e-12
"D" 5.600000000000003e-01
"S" 0.000000000000000e+00
"G" 0.000000000000000e+00
"B" 0.000000000000000e+00
"M1.n1" 4.015831041118060e-12
"Vb:p" 5.600024169315928e-13
"Vd:p" -9.703173374123977e-12
"Vg:p" 7.860825455584747e-13
"Vs:p" 1.425071839087209e-27
"vds" 5.700000000000003e-01
"M1:ids" 7.842736988780800e-12
"D" 5.700000000000003e-01
"S" 0.000000000000000e+00
"G" 0.000000000000000e+00
"B" 0.000000000000000e+00
"M1.n1" 4.203506718382160e-12
"Vb:p" 5.700024688917253e-13
"Vd:p" -9.805558751498764e-12
"Vg:p" 8.228192938454078e-13
"Vs:p" -6.723198041402137e-28
"vds" 5.800000000000003e-01
"M1:ids" 7.887803358688655e-12
"D" 5.800000000000003e-01
"S" 0.000000000000000e+00
"G" 0.000000000000000e+00
"B" 0.000000000000000e+00
"M1.n1" 4.397438709337170e-12
"Vb:p" 5.800025335260647e-13
"Vd:p" -9.908586582212923e-12
"Vg:p" 8.607806900174875e-13
"Vs:p" 6.087671715255368e-28
"vds" 5.900000000000003e-01
"M1:ids" 7.932305542840219e-12
"D" 5.900000000000003e-01
"S" 0.000000000000000e+00
"G" 0.000000000000000e+00
"B" 0.000000000000000e+00
"M1.n1" 4.597782648969107e-12
"Vb:p" 5.900026132699827e-13
"Vd:p" -1.001230535507920e-11
"Vg:p" 8.999971989883778e-13
"Vs:p" -2.691705113892851e-27
"vds" 6.000000000000003e-01
"M1:ids" 7.976261268287234e-12
"D" 6.000000000000003e-01
"S" 0.000000000000000e+00
"G" 0.000000000000000e+00
"B" 0.000000000000000e+00
"M1.n1" 4.804697906610976e-12
"Vb:p" 6.000027108963874e-13
"Vd:p" -1.011676399581905e-11
"Vg:p" 9.405000166549332e-13
"Vs:p" 1.297253168696138e-28
"vds" 6.100000000000003e-01
"M1:ids" 8.019687950583779e-12
"D" 6.100000000000003e-01
"S" 0.000000000000000e+00
"G" 0.000000000000000e+00
"B" 0.000000000000000e+00
"M1.n1" 5.018347674896389e-12
"Vb:p" 6.100028295423635e-13
"Vd:p" -1.022201186741604e-11
"Vg:p" 9.823210873095053e-13
"Vs:p" 2.131583520889794e-28
"vds" 6.200000000000003e-01
"M1:ids" 8.062602679026920e-12
"D" 6.200000000000003e-01
"S" 0.000000000000000e+00
"G" 0.000000000000000e+00
"B" 0.000000000000000e+00
"M1.n1" 5.238899060865196e-12
"Vb:p" 6.200029727356597e-13
"Vd:p" -1.032809877321701e-11
"Vg:p" 1.025493121473500e-12
"Vs:p" -1.959923243091872e-27
"vds" 6.300000000000003e-01
"M1:ids" 8.105022204077788e-12
"D" 6.300000000000003e-01
"S" 0.000000000000000e+00
"G" 0.000000000000000e+00
"B" 0.000000000000000e+00
"M1.n1" 5.466523179274025e-12
"Vb:p" 6.300031444208370e-13
"Vd:p" -1.043507496264133e-11
"Vg:p" 1.070049614162535e-12
"Vs:p" 2.131618769779904e-27
"vds" 6.400000000000003e-01
"M1:ids" 8.146962926808489e-12
"D" 6.400000000000003e-01
"S" 0.000000000000000e+00
"G" 0.000000000000000e+00
"B" 0.000000000000000e+00
"M1.n1" 5.701395248166580e-12
"Vb:p" 6.400033489849095e-13
"Vd:p" -1.054299113936739e-11
"Vg:p" 1.116024863593932e-12
"Vs:p" -4.453103050675293e-28
"vds" 6.500000000000004e-01
"M1:ids" 8.188440890241890e-12
"D" 6.500000000000004e-01
"S" 0.000000000000000e+00
"G" 0.000000000000000e+00
"B" 0.000000000000000e+00
"M1.n1" 5.943694686759216e-12
"Vb:p" 6.500035912823575e-13
"Vd:p" -1.065189847185156e-11
"Vg:p" 1.163453990347426e-12
"Vs:p" 2.434590661191349e-27
"vds" 6.600000000000004e-01
"M1:ids" 8.229471772433982e-12
"D" 6.600000000000004e-01
"S" 0.000000000000000e+00
"G" 0.000000000000000e+00
"B" 0.000000000000000e+00
"M1.n1" 6.193605215699530e-12
"Vb:p" 6.600038766594848e-13
"Vd:p" -1.076184860606371e-11
"Vg:p" 1.212372956990368e-12
"Vs:p" 3.623846542656341e-28
"vds" 6.700000000000004e-01
"M1:ids" 8.270070881173484e-12
"D" 6.700000000000004e-01
"S" 0.000000000000000e+00
"G" 0.000000000000000e+00
"B" 0.000000000000000e+00
"M1.n1" 6.451314959756075e-12
"Vb:p" 6.700042109783289e-13
"Vd:p" -1.087289368031041e-11
"Vg:p" 1.262818588178823e-12
"Vs:p" 3.132445413862969e-27
"vds" 6.800000000000004e-01
"M1:ids" 8.310253150161416e-12
"D" 6.800000000000004e-01
"S" 0.000000000000000e+00
"G" 0.000000000000000e+00
"B" 0.000000000000000e+00
"M1.n1" 6.717016553000281e-12
"Vb:p" 6.800046006408603e-13
"Vd:p" -1.098508634202845e-11
"Vg:p" 1.314828591246498e-12
"Vs:p" 3.189785398094181e-27
"vds" 6.900000000000004e-01
"M1:ids" 8.350033136557491e-12
"D" 6.900000000000004e-01
"S" 0.000000000000000e+00
"G" 0.000000000000000e+00
"B" 0.000000000000000e+00
"M1.n1" 6.990907246541624e-12
"Vb:p" 6.900050526153618e-13
"Vd:p" -1.109847976644590e-11
"Vg:p" 1.368441577293466e-12
"Vs:p" 1.011962648725601e-27
"vds" 7.000000000000004e-01
"M1:ids" 8.389425019763048e-12
"D" 7.000000000000004e-01
"S" 0.000000000000000e+00
"G" 0.000000000000000e+00
"B" 0.000000000000000e+00
"M1.n1" 7.273189018879561e-12
"Vb:p" 7.000055744692946e-13
"Vd:p" -1.121312767699960e-11
"Vg:p" 1.423697082787102e-12
"Vs:p" 7.388452406472334e-28
"vds" 7.100000000000004e-01
"M1:ids" 8.428442601344288e-12
"D" 7.100000000000004e-01
"S" 0.000000000000000e+00
"G" 0.000000000000000e+00
"B" 0.000000000000000e+00
"M1.n1" 7.564068688937633e-12
"Vb:p" 7.100061744177382e-13
"Vd:p" -1.132908436742947e-11
"Vg:p" 1.480635591688053e-12
"Vs:p" -2.016844144967186e-27
"vds" 7.200000000000004e-01
"M1:ids" 8.467099305975338e-12
"D" 7.200000000000004e-01
"S" 0.000000000000000e+00
"G" 0.000000000000000e+00
"B" 0.000000000000000e+00
"M1.n1" 7.863758031845779e-12
"Vb:p" 7.200068614055834e-13
"Vd:p" -1.144640472547437e-11
"Vg:p" 1.539298558114149e-12
"Vs:p" 4.361938239785345e-28
"vds" 7.300000000000004e-01
"M1:ids" 8.505408183311976e-12
"D" 7.300000000000004e-01
"S" 0.000000000000000e+00
"G" 0.000000000000000e+00
"B" 0.000000000000000e+00
"M1.n1" 8.172473897539132e-12
"Vb:p" 7.300076452581696e-13
"Vd:p" -1.156514425810499e-11
"Vg:p" 1.599728429555637e-12
"Vs:p" 2.022123689764395e-27
"vds" 7.400000000000004e-01
"M1:ids" 8.543381910701645e-12
"D" 7.400000000000004e-01
"S" 0.000000000000000e+00
"G" 0.000000000000000e+00
"B" 0.000000000000000e+00
"M1.n1" 8.490438332243939e-12
"Vb:p" 7.400085369638836e-13
"Vd:p" -1.168535911830088e-11
"Vg:p" 1.661968670655551e-12
"Vs:p" 1.748710458846569e-27
"vds" 7.500000000000004e-01
"M1:ids" 8.581032796637714e-12
"D" 7.500000000000004e-01
"S" 0.000000000000000e+00
"G" 0.000000000000000e+00
"B" 0.000000000000000e+00
"M1.n1" 8.817878702921943e-12
"Vb:p" 7.500095492006909e-13
"Vd:p" -1.180710613338663e-11
"Vg:p" 1.726063787569196e-12
"Vs:p" 2.846980487590594e-27
"vds" 7.600000000000005e-01
"M1:ids" 8.618372784875393e-12
"D" 7.600000000000005e-01
"S" 0.000000000000000e+00
"G" 0.000000000000000e+00
"B" 0.000000000000000e+00
"M1.n1" 9.155027824746717e-12
"Vb:p" 7.600106972972161e-13
"Vd:p" -1.193044283506937e-11
"Vg:p" 1.792059352917116e-12
"Vs:p" 2.556750544825767e-27
"vds" 7.700000000000005e-01
"M1:ids" 8.655413459146694e-12
"D" 7.700000000000005e-01
"S" 0.000000000000000e+00
"G" 0.000000000000000e+00
"B" 0.000000000000000e+00
"M1.n1" 9.502124091688014e-12
"Vb:p" 7.700120009425006e-13
"Vd:p" -1.205542749141451e-11
"Vg:p" 1.860002031346452e-12
"Vs:p" -2.321531821267562e-28
"vds" 7.800000000000005e-01
"M1:ids" 8.692166048378439e-12
"D" 7.800000000000005e-01
"S" 0.000000000000000e+00
"G" 0.000000000000000e+00
"B" 0.000000000000000e+00
"M1.n1" 9.859411610281097e-12
"Vb:p" 7.800134871467146e-13
"Vd:p" -1.218211914121967e-11
"Vg:p" 1.929939605715739e-12
"Vs:p" -1.631422980942756e-27
"vds" 7.900000000000005e-01
"M1:ids" 8.728641432375018e-12
"D" 7.900000000000005e-01
"S" 0.000000000000000e+00
"G" 0.000000000000000e+00
"B" 0.000000000000000e+00
"M1.n1" 1.022714033666096e-11
"Vb:p" 7.900151952335886e-13
"Vd:p" -1.231057763150611e-11
"Vg:p" 2.001921003918799e-12
"Vs:p" 7.342136135645040e-28
"vds" 8.000000000000005e-01
"M1:ids" 8.764850147885897e-12
"D" 8.000000000000005e-01
"S" 0.000000000000000e+00
"G" 0.000000000000000e+00
"B" 0.000000000000000e+00
"M1.n1" 1.060556621694220e-11
"Vb:p" 8.000171850466394e-13
"Vd:p" -1.244086365927470e-11
"Vg:p" 2.075996326363524e-12
"Vs:p" 2.508839524399860e-27
"vds" 8.100000000000005e-01
"M1:ids" 8.800802395005059e-12
"D" 8.100000000000005e-01
"S" 0.000000000000000e+00
"G" 0.000000000000000e+00
"B" 0.000000000000000e+00
"M1.n1" 1.099495133102898e-11
"Vb:p" 8.100195501151703e-13
"Vd:p" -1.257303881922088e-11
"Vg:p" 2.152216874122095e-12
"Vs:p" 7.346080440171146e-28
"vds" 8.200000000000005e-01
"M1:ids" 8.836508043860573e-12
"D" 8.200000000000005e-01
"S" 0.000000000000000e+00
"G" 0.000000000000000e+00
"B" 0.000000000000000e+00
"M1.n1" 1.139556403993999e-11
"Vb:p" 8.200224382998486e-13
"Vd:p" -1.270716565990814e-11
"Vg:p" 2.230635177769237e-12
"Vs:p" 4.603275734438956e-28
"vds" 8.300000000000005e-01
"M1:ids" 8.871976641531625e-12
"D" 8.300000000000005e-01
"S" 0.000000000000000e+00
"G" 0.000000000000000e+00
"B" 0.000000000000000e+00
"M1.n1" 1.180767913673678e-11
"Vb:p" 8.300260834761798e-13
"Vd:p" -1.284330775191203e-11
"Vg:p" 2.311305026925830e-12
"Vs:p" 1.253295162746464e-27
"vds" 8.400000000000005e-01
"M1:ids" 8.907217419162598e-12
"D" 8.400000000000005e-01
"S" 0.000000000000000e+00
"G" 0.000000000000000e+00
"B" 0.000000000000000e+00
"M1.n1" 1.223157800114520e-11
"Vb:p" 8.400308531788947e-13
"Vd:p" -1.298152977284525e-11
"Vg:p" 2.394281500525419e-12
"Vs:p" 3.593040737690298e-28
"vds" 8.500000000000005e-01
"M1:ids" 8.942239299225146e-12
"D" 8.500000000000005e-01
"S" 0.000000000000000e+00
"G" 0.000000000000000e+00
"B" 0.000000000000000e+00
"M1.n1" 1.266754875796316e-11
"Vb:p" 8.500373188883671e-13
"Vd:p" -1.312189761591295e-11
"Vg:p" 2.479620997821889e-12
"Vs:p" -6.060832114990642e-28
"vds" 8.600000000000005e-01
"M1:ids" 8.977050902895759e-12
"D" 8.600000000000005e-01
"S" 0.000000000000000e+00
"G" 0.000000000000000e+00
"B" 0.000000000000000e+00
"M1.n1" 1.311588643934792e-11
"Vb:p" 8.600463578628652e-13
"Vd:p" -1.326447853089264e-11
"Vg:p" 2.567381270156542e-12
"Vs:p" 1.849559877039015e-27
"vds" 8.700000000000006e-01
"M1:ids" 9.011660557517122e-12
"D" 8.700000000000006e-01