HEADER
"PSFversion" "1.00"
"simulator" "spectre"
"version" "23.1.0.242.isr1"
"date" "2:57:56 PM, Fri Nov 29, 2024"
"design" "# Simulate DC sweeps of gate to source voltage"
"analysis type" "dc"
"analysis name" "vgs-002_vds"
"analysis description" "DC Analysis `vgs-002_vds': vds = (0 -> 1.2)"
"xVecSorted" "unsorted"
"tolerance.relative" 1.000000000000000e-03
"reltol" 1.000000000000000e-03
"abstol(V)" 1.000000000000000e-06
"abstol(I)" 1.000000000000000e-12
"temp" 2.700000000000000e+01
"tnom" 2.700000000000000e+01
"tempeffects" "all"
"gmindc" 1.000000000000000e-12
TYPE
"sweep" FLOAT DOUBLE PROP(
"key" "sweep"
)
"LogicV" FLOAT DOUBLE PROP(
"key" "node"
)
"Real" FLOAT DOUBLE PROP(
"units" ""
"key" "node"
"tolerance" 1.000000000000000e-06
)
"Tau" FLOAT DOUBLE PROP(
"units" "N*m"
"key" "node"
"tolerance" 1.000000000000000e-06
)
"Alpha" FLOAT DOUBLE PROP(
"units" "rads/s^2"
"key" "node"
"tolerance" 1.000000000000000e-06
)
"Omega" FLOAT DOUBLE PROP(
"units" "rads/s"
"key" "node"
"tolerance" 1.000000000000000e-06
)
"Theta" FLOAT DOUBLE PROP(
"units" "rads"
"key" "node"
"tolerance" 1.000000000000000e-06
)
"F" FLOAT DOUBLE PROP(
"units" "N"
"key" "node"
"tolerance" 1.000000000000000e-06
)
"Imp" FLOAT DOUBLE PROP(
"units" "m/s^3"
"key" "node"
"tolerance" 1.000000000000000e-06
)
"Acc" FLOAT DOUBLE PROP(
"units" "m/s^2"
"key" "node"
"tolerance" 1.000000000000000e-06
)
"Vel" FLOAT DOUBLE PROP(
"units" "m/s"
"key" "node"
"tolerance" 1.000000000000000e-06
)
"Pos" FLOAT DOUBLE PROP(
"units" "m"
"key" "node"
"tolerance" 1.000000000000000e-06
)
"Phi" FLOAT DOUBLE PROP(
"units" "Wb"
"key" "node"
"tolerance" 1.000000000000000e-09
)
"V" FLOAT DOUBLE PROP(
"units" "V"
"key" "node"
"tolerance" 1.000000000000000e-06
)
"I" FLOAT DOUBLE PROP(
"units" "A"
"key" "branch"
"tolerance" 1.000000000000000e-12
)
"MMF" FLOAT DOUBLE PROP(
"units" "A*turn"
"key" "node"
"tolerance" 1.000000000000000e-12
)
"Wb" FLOAT DOUBLE PROP(
"units" "Wb"
"key" "node"
"tolerance" 1.000000000000000e-09
)
"Temp" FLOAT DOUBLE PROP(
"units" "C"
"key" "node"
"tolerance" 1.000000000000000e-04
)
"Pwr" FLOAT DOUBLE PROP(
"units" "W"
"key" "node"
"tolerance" 1.000000000000000e-09
)
"U" FLOAT DOUBLE PROP(
"units" ""
"key" "node"
"tolerance" 1.000000000000000e-06
)
"V/Sec" FLOAT DOUBLE PROP(
"units" "V/s"
"key" "node"
"tolerance" 9.999999999999999e-05
)
"I/Sec" FLOAT DOUBLE PROP(
"units" "A/s"
"key" "node"
"tolerance" 1.000000000000000e-06
)
"1/Sec" FLOAT DOUBLE PROP(
"units" "1/s"
"key" "node"
"tolerance" 9.999999999999999e-05
)
"HOD" FLOAT DOUBLE PROP(
"units" ""
"key" "node"
"tolerance" 1.000000000000000e-02
)
"Q" FLOAT DOUBLE PROP(
"units" "coul"
"key" "node"
"tolerance" 1.000000000000000e-14
)
"A" FLOAT DOUBLE PROP(
"key" "inst"
)
SWEEP
"vds" "sweep" PROP(
"sweep_direction" 0
"plot" 0
"grid" 1
)
TRACE
"M1:ids" "A"
"D" "V"
"S" "V"
"G" "V"
"B" "V"
"M1.n1" "V"
"Vb:p" "I"
"Vd:p" "I"
"Vg:p" "I"
"Vs:p" "I"
VALUE
"vds" 0.000000000000000e+00
"M1:ids" 0.000000000000000e+00
"D" 0.000000000000000e+00
"S" 0.000000000000000e+00
"G" 4.000000000000000e-01
"B" 0.000000000000000e+00
"M1.n1" 3.999999999281864e-01
"Vb:p" 1.011155203511576e-18
"Vd:p" 7.026842298222705e-12
"Vg:p" -1.405368560759822e-11
"Vs:p" 2.390240138591019e-24
"vds" 1.000000000000000e-02
"M1:ids" 1.184825686441224e-07
"D" 1.000000000000000e-02
"S" 0.000000000000000e+00
"G" 4.000000000000000e-01
"B" 0.000000000000000e+00
"M1.n1" 3.999999999288367e-01
"Vb:p" 1.000173271168971e-14
"Vd:p" -1.184756518444558e-07
"Vg:p" -1.392993403856179e-11
"Vs:p" 4.044601363745223e-24
"vds" 2.000000000000000e-02
"M1:ids" 2.208468099714365e-07
"D" 2.000000000000000e-02
"S" 0.000000000000000e+00
"G" 4.000000000000000e-01
"B" 0.000000000000000e+00
"M1.n1" 3.999999999297247e-01
"Vb:p" 2.000222376947896e-14
"Vd:p" -2.208400361159304e-07
"Vg:p" -1.375610253348774e-11
"Vs:p" 4.044601363697075e-24
"vds" 3.000000000000000e-02
"M1:ids" 3.072645129640039e-07
"D" 3.000000000000000e-02
"S" 0.000000000000000e+00
"G" 4.000000000000000e-01
"B" 0.000000000000000e+00
"M1.n1" 3.999999999305295e-01
"Vb:p" 3.000255822106433e-14
"Vd:p" -3.072578707500716e-07
"Vg:p" -1.359857012432922e-11
"Vs:p" 5.698416056694640e-23
"vds" 4.000000000000000e-02
"M1:ids" 3.781807603132392e-07
"D" 4.000000000000000e-02
"S" 0.000000000000000e+00
"G" 4.000000000000000e-01
"B" 0.000000000000000e+00
"M1.n1" 3.999999999312637e-01
"Vb:p" 4.000278626460122e-14
"Vd:p" -3.781742401326021e-07
"Vg:p" -1.345486306459911e-11
"Vs:p" -4.227204761833226e-24
"vds" 5.000000000000000e-02
"M1:ids" 4.344625953208508e-07
"D" 5.000000000000000e-02
"S" 0.000000000000000e+00
"G" 4.000000000000000e-01
"B" 0.000000000000000e+00
"M1.n1" 3.999999999319257e-01
"Vb:p" 5.000294200173208e-14
"Vd:p" -4.344561874201745e-07
"Vg:p" -1.332527538682777e-11
"Vs:p" 6.360160546794831e-23
"vds" 6.000000000000000e-02
"M1:ids" 4.775577325462941e-07
"D" 6.000000000000000e-02
"S" 0.000000000000000e+00
"G" 4.000000000000000e-01
"B" 0.000000000000000e+00
"M1.n1" 3.999999999325078e-01
"Vb:p" 6.000304859909218e-14
"Vd:p" -4.775514262155056e-07
"Vg:p" -1.321132914526143e-11
"Vs:p" -3.814160987650736e-23
"vds" 7.000000000000001e-02
"M1:ids" 5.095473729922346e-07
"D" 7.000000000000001e-02
"S" 0.000000000000000e+00
"G" 4.000000000000000e-01
"B" 0.000000000000000e+00
"M1.n1" 3.999999999330032e-01
"Vb:p" 7.000312179474316e-14
"Vd:p" -5.095411566849364e-07
"Vg:p" -1.311436566756271e-11
"Vs:p" 9.834319119344241e-23
"vds" 8.000000000000000e-02
"M1:ids" 5.329419849185842e-07
"D" 8.000000000000000e-02
"S" 0.000000000000000e+00
"G" 4.000000000000000e-01
"B" 0.000000000000000e+00
"M1.n1" 3.999999999334112e-01
"Vb:p" 8.000317228023157e-14
"Vd:p" -5.329358470591901e-07
"Vg:p" -1.303449775458811e-11
"Vs:p" 9.172574629431808e-23
"vds" 9.000000000000000e-02
"M1:ids" 5.502352059199165e-07
"D" 9.000000000000000e-02
"S" 0.000000000000000e+00
"G" 4.000000000000000e-01
"B" 0.000000000000000e+00
"M1.n1" 3.999999999337394e-01
"Vb:p" 9.000320731880590e-14
"Vd:p" -5.502291359488657e-07
"Vg:p" -1.297023936842194e-11
"Vs:p" 8.924420446055865e-23
"vds" 9.999999999999999e-02
"M1:ids" 5.634840511441791e-07
"D" 9.999999999999999e-02
"S" 0.000000000000000e+00
"G" 4.000000000000000e-01
"B" 0.000000000000000e+00
"M1.n1" 3.999999999340011e-01
"Vb:p" 1.000032318447340e-13
"Vd:p" -5.634780402276478e-07
"Vg:p" -1.291901034229565e-11
"Vs:p" 5.326184782620091e-23
"vds" 1.100000000000000e-01
"M1:ids" 5.741508409776352e-07
"D" 1.100000000000000e-01
"S" 0.000000000000000e+00
"G" 4.000000000000000e-01
"B" 0.000000000000000e+00
"M1.n1" 3.999999999342107e-01
"Vb:p" 1.100032492101230e-13
"Vd:p" -5.741448821558797e-07
"Vg:p" -1.287799070670302e-11
"Vs:p" 6.422199097762543e-23
"vds" 1.200000000000000e-01
"M1:ids" 5.831783844513633e-07
"D" 1.200000000000000e-01
"S" 0.000000000000000e+00
"G" 4.000000000000000e-01
"B" 0.000000000000000e+00
"M1.n1" 3.999999999343807e-01
"Vb:p" 1.200032616922758e-13
"Vd:p" -5.831724724009690e-07
"Vg:p" -1.284471197114007e-11
"Vs:p" -6.708746583893593e-24
"vds" 1.300000000000000e-01
"M1:ids" 5.911449773300179e-07
"D" 1.300000000000000e-01
"S" 0.000000000000000e+00
"G" 4.000000000000000e-01
"B" 0.000000000000000e+00
"M1.n1" 3.999999999345210e-01
"Vb:p" 1.300032708383644e-13
"Vd:p" -5.911391080002655e-07
"Vg:p" -1.281725255379800e-11
"Vs:p" 5.083200467153570e-23
"vds" 1.400000000000000e-01
"M1:ids" 5.984001592058619e-07
"D" 1.400000000000000e-01
"S" 0.000000000000000e+00
"G" 4.000000000000000e-01
"B" 0.000000000000000e+00
"M1.n1" 3.999999999346388e-01
"Vb:p" 1.400032776995812e-13
"Vd:p" -5.983943294819204e-07
"Vg:p" -1.279419986993227e-11
"Vs:p" -3.907218805003088e-23
"vds" 1.500000000000000e-01
"M1:ids" 6.051567162495643e-07
"D" 1.500000000000000e-01
"S" 0.000000000000000e+00
"G" 4.000000000000000e-01
"B" 0.000000000000000e+00
"M1.n1" 3.999999999347392e-01
"Vb:p" 1.500032829902054e-13
"Vd:p" -6.051509236903251e-07
"Vg:p" -1.277453827107009e-11
"Vs:p" 7.034829724895869e-23
"vds" 1.600000000000000e-01
"M1:ids" 6.115466734500053e-07
"D" 1.600000000000000e-01
"S" 0.000000000000000e+00
"G" 4.000000000000000e-01
"B" 0.000000000000000e+00
"M1.n1" 3.999999999348260e-01
"Vb:p" 1.600032871956627e-13
"Vd:p" -6.115409160987122e-07
"Vg:p" -1.275753924485823e-11
"Vs:p" 1.700752595340112e-22
"vds" 1.700000000000000e-01
"M1:ids" 6.176540007086920e-07
"D" 1.700000000000000e-01
"S" 0.000000000000000e+00
"G" 4.000000000000000e-01
"B" 0.000000000000000e+00
"M1.n1" 3.999999999349020e-01
"Vb:p" 1.700032906459309e-13
"Vd:p" -6.176482769600185e-07
"Vg:p" -1.274267590221516e-11
"Vs:p" 5.130275827980918e-24
"vds" 1.800000000000000e-01
"M1:ids" 6.235335727415473e-07
"D" 1.800000000000000e-01
"S" 0.000000000000000e+00
"G" 4.000000000000000e-01
"B" 0.000000000000000e+00
"M1.n1" 3.999999999349690e-01
"Vb:p" 1.800032935654069e-13
"Vd:p" -6.235278812490030e-07
"Vg:p" -1.272956193496582e-11
"Vs:p" 7.505288793046969e-23
"vds" 1.900000000000000e-01
"M1:ids" 6.292222642751522e-07
"D" 1.900000000000000e-01
"S" 0.000000000000000e+00
"G" 4.000000000000000e-01
"B" 0.000000000000000e+00
"M1.n1" 3.999999999350285e-01
"Vb:p" 1.900032961067807e-13
"Vd:p" -6.292166038861617e-07
"Vg:p" -1.271790950560033e-11
"Vs:p" 8.810683102470651e-23
"vds" 2.000000000000000e-01
"M1:ids" 6.347455587995539e-07
"D" 2.000000000000000e-01
"S" 0.000000000000000e+00
"G" 4.000000000000000e-01
"B" 0.000000000000000e+00
"M1.n1" 3.999999999350817e-01
"Vb:p" 2.000032983740460e-13
"Vd:p" -6.347399285095663e-07
"Vg:p" -1.270750047955283e-11
"Vs:p" 9.741261386354372e-23
"vds" 2.100000000000000e-01
"M1:ids" 6.401215695739108e-07
"D" 2.100000000000000e-01
"S" 0.000000000000000e+00
"G" 4.000000000000000e-01
"B" 0.000000000000000e+00
"M1.n1" 3.999999999351294e-01
"Vb:p" 2.100033004381310e-13
"Vd:p" -6.401159684934300e-07
"Vg:p" -1.269816672402191e-11
"Vs:p" 1.855903608489648e-23
"vds" 2.200000000000001e-01
"M1:ids" 6.453635411961692e-07
"D" 2.200000000000001e-01
"S" 0.000000000000000e+00
"G" 4.000000000000000e-01
"B" 0.000000000000000e+00
"M1.n1" 3.999999999351722e-01
"Vb:p" 2.200033023475146e-13
"Vd:p" -6.453579685267218e-07
"Vg:p" -1.268977649792620e-11
"Vs:p" 2.053651189393411e-23
"vds" 2.300000000000001e-01
"M1:ids" 6.504814402837700e-07
"D" 2.300000000000001e-01
"S" 0.000000000000000e+00
"G" 4.000000000000000e-01
"B" 0.000000000000000e+00
"M1.n1" 3.999999999352108e-01
"Vb:p" 2.300033041354376e-13
"Vd:p" -6.504758953001790e-07
"Vg:p" -1.268222493813864e-11
"Vs:p" -5.114385521976725e-23
"vds" 2.400000000000001e-01
"M1:ids" 6.554829881253188e-07
"D" 2.400000000000001e-01
"S" 0.000000000000000e+00
"G" 4.000000000000000e-01
"B" 0.000000000000000e+00
"M1.n1" 3.999999999352455e-01
"Vb:p" 2.400033058247996e-13
"Vd:p" -6.554774701624026e-07
"Vg:p" -1.267542732090939e-11
"Vs:p" 1.818949038499824e-22
"vds" 2.500000000000001e-01
"M1:ids" 6.603743440653881e-07
"D" 2.500000000000001e-01
"S" 0.000000000000000e+00
"G" 4.000000000000000e-01
"B" 0.000000000000000e+00
"M1.n1" 3.999999999352767e-01
"Vb:p" 2.500033074314847e-13
"Vd:p" -6.603688525077818e-07
"Vg:p" -1.266931422364897e-11
"Vs:p" -5.312133387165117e-23
"vds" 2.600000000000001e-01
"M1:ids" 6.651605657335185e-07
"D" 2.600000000000001e-01
"S" 0.000000000000000e+00
"G" 4.000000000000000e-01
"B" 0.000000000000000e+00
"M1.n1" 3.999999999353048e-01
"Vb:p" 2.600033089666190e-13
"Vd:p" -6.651551000078786e-07
"Vg:p" -1.266382800409827e-11
"Vs:p" 6.523012573732833e-23
"vds" 2.700000000000001e-01
"M1:ids" 6.698459238896714e-07
"D" 2.700000000000001e-01
"S" 0.000000000000000e+00
"G" 4.000000000000000e-01
"B" 0.000000000000000e+00
"M1.n1" 3.999999999353299e-01
"Vb:p" 2.700033104410334e-13
"Vd:p" -6.698404834585650e-07
"Vg:p" -1.265892020465942e-11
"Vs:p" 4.261189733429064e-23
"vds" 2.800000000000001e-01
"M1:ids" 6.744341208161080e-07
"D" 2.800000000000001e-01
"S" 0.000000000000000e+00
"G" 4.000000000000000e-01
"B" 0.000000000000000e+00
"M1.n1" 3.999999999353522e-01
"Vb:p" 2.800033118763396e-13
"Vd:p" -6.744287051731607e-07
"Vg:p" -1.265454961505262e-11
"Vs:p" -1.322657078582426e-22
"vds" 2.900000000000001e-01
"M1:ids" 6.789284436313982e-07
"D" 2.900000000000001e-01
"S" 0.000000000000000e+00
"G" 4.000000000000000e-01
"B" 0.000000000000000e+00
"M1.n1" 3.999999999353719e-01
"Vb:p" 2.900033133309758e-13
"Vd:p" -6.789230522974169e-07
"Vg:p" -1.265068080971231e-11
"Vs:p" -4.433965890499440e-24
"vds" 3.000000000000001e-01
"M1:ids" 6.833318730127970e-07
"D" 3.000000000000001e-01
"S" 0.000000000000000e+00
"G" 4.000000000000000e-01
"B" 0.000000000000000e+00
"M1.n1" 3.999999999353893e-01
"Vb:p" 3.000033150018382e-13
"Vd:p" -6.833265055326072e-07
"Vg:p" -1.264728303234282e-11
"Vs:p" 5.589849445196449e-23
"vds" 3.100000000000001e-01
"M1:ids" 6.876471609309333e-07
"D" 3.100000000000001e-01
"S" 0.000000000000000e+00
"G" 4.000000000000000e-01
"B" 0.000000000000000e+00
"M1.n1" 3.999999999354044e-01
"Vb:p" 3.100033174929698e-13
"Vd:p" -6.876418168708009e-07
"Vg:p" -1.264432933851737e-11
"Vs:p" 1.333820789790777e-22
"vds" 3.200000000000001e-01
"M1:ids" 6.918768865757988e-07
"D" 3.200000000000001e-01
"S" 0.000000000000000e+00
"G" 4.000000000000000e-01
"B" 0.000000000000000e+00
"M1.n1" 3.999999999354173e-01
"Vb:p" 3.200033224928976e-13
"Vd:p" -6.918715655212727e-07
"Vg:p" -1.264179593472259e-11
"Vs:p" 1.473333428038022e-23
"vds" 3.300000000000001e-01
"M1:ids" 6.960234967598279e-07
"D" 3.300000000000001e-01
"S" 0.000000000000000e+00
"G" 4.000000000000000e-01
"B" 0.000000000000000e+00
"M1.n1" 3.999999999354282e-01
"Vb:p" 3.300033343238631e-13
"Vd:p" -6.960181983138959e-07
"Vg:p" -1.263966167417284e-11
"Vs:p" -3.305570755454131e-23
"vds" 3.400000000000001e-01
"M1:ids" 7.000893351623751e-07
"D" 3.400000000000001e-01
"S" 0.000000000000000e+00
"G" 4.000000000000000e-01
"B" 0.000000000000000e+00
"M1.n1" 3.999999999354372e-01
"Vb:p" 3.400033632063198e-13
"Vd:p" -7.000840589438548e-07
"Vg:p" -1.263790769286163e-11
"Vs:p" 1.325097386836432e-22
"vds" 3.500000000000001e-01
"M1:ids" 7.040766634852206e-07
"D" 3.500000000000001e-01
"S" 0.000000000000000e+00
"G" 4.000000000000000e-01
"B" 0.000000000000000e+00
"M1.n1" 3.999999999354443e-01
"Vb:p" 3.500034316554416e-13
"Vd:p" -7.040714091272604e-07
"Vg:p" -1.263651720976248e-11
"Vs:p" 3.983958392669425e-23
"vds" 3.600000000000002e-01
"M1:ids" 7.079876767036371e-07
"D" 3.600000000000002e-01
"S" 0.000000000000000e+00
"G" 4.000000000000000e-01
"B" 0.000000000000000e+00
"M1.n1" 3.999999999354497e-01
"Vb:p" 3.600035862301790e-13
"Vd:p" -7.079824438519680e-07
"Vg:p" -1.263547562977588e-11
"Vs:p" -1.943330711216136e-23
"vds" 3.700000000000002e-01
"M1:ids" 7.118245139845638e-07
"D" 3.700000000000002e-01
"S" 0.000000000000000e+00
"G" 4.000000000000000e-01
"B" 0.000000000000000e+00
"M1.n1" 3.999999999354532e-01
"Vb:p" 3.700039179053463e-13
"Vd:p" -7.118193022948080e-07
"Vg:p" -1.263477151891642e-11
"Vs:p" -8.209292932486139e-23
"vds" 3.800000000000002e-01
"M1:ids" 7.155892664144720e-07
"D" 3.800000000000002e-01
"S" 0.000000000000000e+00
"G" 4.000000000000000e-01
"B" 0.000000000000000e+00
"M1.n1" 3.999999999354552e-01
"Vb:p" 3.800045956205894e-13
"Vd:p" -7.155840755456423e-07
"Vg:p" -1.263440027490568e-11
"Vs:p" 2.665874758249575e-22
"vds" 3.900000000000002e-01
"M1:ids" 7.192839823736206e-07
"D" 3.900000000000002e-01
"S" 0.000000000000000e+00
"G" 4.000000000000000e-01
"B" 0.000000000000000e+00
"M1.n1" 3.999999999354554e-01
"Vb:p" 3.900059190313882e-13
"Vd:p" -7.192788119999590e-07
"Vg:p" -1.263434595801509e-11
"Vs:p" 2.293128945140487e-22
"vds" 4.000000000000002e-01
"M1:ids" 7.229106711764139e-07
"D" 4.000000000000002e-01
"S" 0.000000000000000e+00
"G" 4.000000000000000e-01
"B" 0.000000000000000e+00
"M1.n1" 3.999999999354553e-01
"Vb:p" 4.000083980692773e-13
"Vd:p" -7.229055212031747e-07
"Vg:p" -1.263437717801311e-11
"Vs:p" 1.650908098943346e-22
"vds" 4.100000000000002e-01
"M1:ids" 7.264713054375422e-07
"D" 4.100000000000002e-01
"S" 0.000000000000000e+00
"G" 4.000000000000000e-01
"B" 0.000000000000000e+00
"M1.n1" 3.999999999354561e-01
"Vb:p" 4.100128685083163e-13
"Vd:p" -7.264661760495080e-07
"Vg:p" -1.263421458659285e-11
"Vs:p" 1.706118609240695e-22
"vds" 4.200000000000002e-01
"M1:ids" 7.299678225090118e-07
"D" 4.200000000000002e-01
"S" 0.000000000000000e+00
"G" 4.000000000000000e-01
"B" 0.000000000000000e+00
"M1.n1" 3.999999999354583e-01
"Vb:p" 4.200206542140090e-13
"Vd:p" -7.299627139684258e-07
"Vg:p" -1.263378155769481e-11
"Vs:p" 7.207822742186803e-23
"vds" 4.300000000000002e-01
"M1:ids" 7.334021252470543e-07
"D" 4.300000000000002e-01
"S" 0.000000000000000e+00
"G" 4.000000000000000e-01
"B" 0.000000000000000e+00
"M1.n1" 3.999999999354620e-01
"Vb:p" 4.300337879975473e-13
"Vd:p" -7.333970378402089e-07
"Vg:p" -1.263305573362172e-11
"Vs:p" -3.092529967912803e-23
"vds" 4.400000000000002e-01
"M1:ids" 7.367760823043116e-07
"D" 4.400000000000002e-01
"S" 0.000000000000000e+00
"G" 4.000000000000000e-01
"B" 0.000000000000000e+00
"M1.n1" 3.999999999354673e-01
"Vb:p" 4.400553038997483e-13
"Vd:p" -7.367710163336741e-07
"Vg:p" -1.263202368008513e-11
"Vs:p" 9.945212064839520e-23
"vds" 4.500000000000002e-01
"M1:ids" 7.400915280948342e-07
"D" 4.500000000000002e-01
"S" 0.000000000000000e+00
"G" 4.000000000000000e-01
"B" 0.000000000000000e+00
"M1.n1" 3.999999999354741e-01
"Vb:p" 4.500896141927541e-13
"Vd:p" -7.400864838784525e-07
"Vg:p" -1.263067414261866e-11
"Vs:p" 6.453651288831982e-23
"vds" 4.600000000000002e-01
"M1:ids" 7.433502625436317e-07
"D" 4.600000000000002e-01
"S" 0.000000000000000e+00
"G" 4.000000000000000e-01
"B" 0.000000000000000e+00
"M1.n1" 3.999999999354827e-01
"Vb:p" 4.601429843489870e-13
"Vd:p" -7.433452404162377e-07
"Vg:p" -1.262899659799979e-11
"Vs:p" 7.331053515819338e-23
"vds" 4.700000000000003e-01
"M1:ids" 7.465540507046458e-07
"D" 4.700000000000003e-01
"S" 0.000000000000000e+00
"G" 4.000000000000000e-01
"B" 0.000000000000000e+00
"M1.n1" 3.999999999354930e-01
"Vb:p" 4.702241186542912e-13
"Vd:p" -7.465490510198887e-07
"Vg:p" -1.262698080926955e-11
"Vs:p" 3.470550401446112e-24
"vds" 4.800000000000003e-01
"M1:ids" 7.497046223103144e-07
"D" 4.800000000000003e-01
"S" 0.000000000000000e+00
"G" 4.000000000000000e-01
"B" 0.000000000000000e+00
"M1.n1" 3.999999999355051e-01
"Vb:p" 4.803448680377491e-13
"Vd:p" -7.496996454439418e-07
"Vg:p" -1.262461664504288e-11
"Vs:p" 2.373484850280372e-22
"vds" 4.900000000000003e-01
"M1:ids" 7.528036712999570e-07
"D" 4.900000000000003e-01
"S" 0.000000000000000e+00
"G" 4.000000000000000e-01
"B" 0.000000000000000e+00
"M1.n1" 3.999999999355190e-01
"Vb:p" 4.905210700881909e-13
"Vd:p" -7.527987176537477e-07
"Vg:p" -1.262189398730218e-11
"Vs:p" 1.071040026921229e-22
"vds" 5.000000000000002e-01
"M1:ids" 7.558528553612654e-07
"D" 5.000000000000002e-01
"S" 0.000000000000000e+00
"G" 4.000000000000000e-01
"B" 0.000000000000000e+00
"M1.n1" 3.999999999355348e-01
"Vb:p" 5.007735291879583e-13
"Vd:p" -7.558479253681292e-07
"Vg:p" -1.261880267488885e-11
"Vs:p" 2.374781857214507e-22
"vds" 5.100000000000002e-01
"M1:ids" 7.588537955101112e-07
"D" 5.100000000000002e-01
"S" 0.000000000000000e+00
"G" 4.000000000000000e-01
"B" 0.000000000000000e+00
"M1.n1" 3.999999999355525e-01
"Vb:p" 5.111291423000505e-13
"Vd:p" -7.588488896402603e-07
"Vg:p" -1.261533246381959e-11
"Vs:p" -2.415275841385084e-23
"vds" 5.200000000000002e-01
"M1:ids" 7.618080757261766e-07
"D" 5.200000000000002e-01
"S" 0.000000000000000e+00
"G" 4.000000000000000e-01
"B" 0.000000000000000e+00
"M1.n1" 3.999999999355722e-01
"Vb:p" 5.216221732914711e-13
"Vd:p" -7.618031944946920e-07
"Vg:p" -1.261147299666473e-11
"Vs:p" 4.163858335714227e-23
"vds" 5.300000000000002e-01
"M1:ids" 7.647172426564202e-07
"D" 5.300000000000002e-01
"S" 0.000000000000000e+00
"G" 4.000000000000000e-01
"B" 0.000000000000000e+00
"M1.n1" 3.999999999355940e-01
"Vb:p" 5.322956758663975e-13
"Vd:p" -7.647123866321307e-07
"Vg:p" -1.260721377739612e-11
"Vs:p" 7.827546587494204e-23
"vds" 5.400000000000003e-01
"M1:ids" 7.675828053935038e-07
"D" 5.400000000000003e-01
"S" 0.000000000000000e+00
"G" 4.000000000000000e-01
"B" 0.000000000000000e+00
"M1.n1" 3.999999999356179e-01
"Vb:p" 5.432030623212422e-13
"Vd:p" -7.675779752095852e-07
"Vg:p" -1.260254414985079e-11
"Vs:p" 1.264342896666310e-22
"vds" 5.500000000000003e-01
"M1:ids" 7.704062353335574e-07
"D" 5.500000000000003e-01
"S" 0.000000000000000e+00
"G" 4.000000000000000e-01
"B" 0.000000000000000e+00
"M1.n1" 3.999999999356439e-01
"Vb:p" 5.544098125181248e-13
"Vd:p" -7.704014316997491e-07
"Vg:p" -1.259745327876119e-11
"Vs:p" -1.804583904773669e-23
"vds" 5.600000000000003e-01
"M1:ids" 7.731889661143366e-07
"D" 5.600000000000003e-01
"S" 0.000000000000000e+00
"G" 4.000000000000000e-01
"B" 0.000000000000000e+00
"M1.n1" 3.999999999356721e-01
"Vb:p" 5.659953147925828e-13
"Vd:p" -7.731841898311101e-07
"Vg:p" -1.259193013270432e-11
"Vs:p" 9.094392383934381e-23
"vds" 5.700000000000003e-01
"M1:ids" 7.759323936335114e-07
"D" 5.700000000000003e-01
"S" 0.000000000000000e+00
"G" 4.000000000000000e-01
"B" 0.000000000000000e+00
"M1.n1" 3.999999999357026e-01
"Vb:p" 5.780548280416168e-13
"Vd:p" -7.759276456080854e-07
"Vg:p" -1.258596346853534e-11
"Vs:p" 1.134823406967303e-22
"vds" 5.800000000000003e-01
"M1:ids" 7.786378761446389e-07
"D" 5.800000000000003e-01
"S" 0.000000000000000e+00
"G" 4.000000000000000e-01
"B" 0.000000000000000e+00
"M1.n1" 3.999999999357354e-01
"Vb:p" 5.907015520409293e-13
"Vd:p" -7.786331574092199e-07
"Vg:p" -1.257954181700253e-11
"Vs:p" 1.704405043496647e-22
"vds" 5.900000000000003e-01
"M1:ids" 7.813067344280459e-07
"D" 5.900000000000003e-01
"S" 0.000000000000000e+00
"G" 4.000000000000000e-01
"B" 0.000000000000000e+00
"M1.n1" 3.999999999357706e-01
"Vb:p" 6.040687911614341e-13
"Vd:p" -7.813020461601425e-07
"Vg:p" -1.257265346931200e-11
"Vs:p" 2.545062674301489e-22
"vds" 6.000000000000003e-01
"M1:ids" 7.839402520323862e-07
"D" 6.000000000000003e-01
"S" 0.000000000000000e+00
"G" 4.000000000000000e-01
"B" 0.000000000000000e+00
"M1.n1" 3.999999999358082e-01
"Vb:p" 6.183121951254698e-13
"Vd:p" -7.839355955774264e-07
"Vg:p" -1.256528646446937e-11
"Vs:p" 4.827101390676384e-23
"vds" 6.100000000000003e-01
"M1:ids" 7.865396755824992e-07
"D" 6.100000000000003e-01
"S" 0.000000000000000e+00
"G" 4.000000000000000e-01
"B" 0.000000000000000e+00
"M1.n1" 3.999999999358483e-01
"Vb:p" 6.336120592786357e-13
"Vd:p" -7.865350524786990e-07
"Vg:p" -1.255742857725233e-11
"Vs:p" -9.183007523358690e-24
"vds" 6.200000000000003e-01
"M1:ids" 7.891062151487819e-07
"D" 6.200000000000003e-01
"S" 0.000000000000000e+00
"G" 4.000000000000000e-01
"B" 0.000000000000000e+00
"M1.n1" 3.999999999358911e-01
"Vb:p" 6.501756660567945e-13
"Vd:p" -7.891016271545012e-07
"Vg:p" -1.254906730670236e-11
"Vs:p" 1.484515249809150e-22
"vds" 6.300000000000003e-01
"M1:ids" 7.916410446730039e-07
"D" 6.300000000000003e-01
"S" 0.000000000000000e+00
"G" 4.000000000000000e-01
"B" 0.000000000000000e+00
"M1.n1" 3.999999999359364e-01
"Vb:p" 6.682396488910212e-13
"Vd:p" -7.916364937962587e-07
"Vg:p" -1.254018986503726e-11
"Vs:p" -5.498813394348260e-23
"vds" 6.400000000000003e-01
"M1:ids" 7.941453024454052e-07
"D" 6.400000000000003e-01
"S" 0.000000000000000e+00
"G" 4.000000000000000e-01
"B" 0.000000000000000e+00
"M1.n1" 3.999999999359845e-01
"Vb:p" 6.880723596980426e-13
"Vd:p" -7.941407909759686e-07
"Vg:p" -1.253078316690363e-11
"Vs:p" 1.763200819876202e-22
"vds" 6.500000000000004e-01
"M1:ids" 7.966200916282168e-07
"D" 6.500000000000004e-01
"S" 0.000000000000000e+00
"G" 4.000000000000000e-01
"B" 0.000000000000000e+00
"M1.n1" 3.999999999360353e-01
"Vb:p" 7.099762213246968e-13
"Vd:p" -7.966156221719669e-07
"Vg:p" -1.252083381889894e-11
"Vs:p" 1.906845079847666e-22
"vds" 6.600000000000004e-01
"M1:ids" 7.990664808204252e-07
"D" 6.600000000000004e-01
"S" 0.000000000000000e+00
"G" 4.000000000000000e-01
"B" 0.000000000000000e+00
"M1.n1" 3.999999999360890e-01
"Vb:p" 7.342900468209172e-13
"Vd:p" -7.990620563360357e-07
"Vg:p" -1.251032810930497e-11
"Vs:p" -1.726926191819830e-23
"vds" 6.700000000000004e-01
"M1:ids" 8.014855046591216e-07
"D" 6.700000000000004e-01
"S" 0.000000000000000e+00
"G" 4.000000000000000e-01
"B" 0.000000000000000e+00
"M1.n1" 3.999999999361455e-01
"Vb:p" 7.613913081721923e-13
"Vd:p" -8.014811284970705e-07
"Vg:p" -1.249925199797776e-11
"Vs:p" -1.886845239104502e-23
"vds" 6.800000000000004e-01
"M1:ids" 8.038781644526588e-07
"D" 6.800000000000004e-01
"S" 0.000000000000000e+00
"G" 4.000000000000000e-01
"B" 0.000000000000000e+00
"M1.n1" 3.999999999362051e-01
"Vb:p" 7.916983380920808e-13
"Vd:p" -8.038738403964174e-07
"Vg:p" -1.248759110635042e-11
"Vs:p" 6.588435543494954e-23
"vds" 6.900000000000004e-01
"M1:ids" 8.062454288412983e-07
"D" 6.900000000000004e-01
"S" 0.000000000000000e+00
"G" 4.000000000000000e-01
"B" 0.000000000000000e+00
"M1.n1" 3.999999999362678e-01
"Vb:p" 8.256724496212560e-13
"Vd:p" -8.062411611506321e-07
"Vg:p" -1.247533070750720e-11
"Vs:p" -2.143894380988491e-24
"vds" 7.000000000000004e-01
"M1:ids" 8.085882344811649e-07
"D" 7.000000000000004e-01
"S" 0.000000000000000e+00
"G" 4.000000000000000e-01
"B" 0.000000000000000e+00
"M1.n1" 3.999999999363335e-01
"Vb:p" 8.638199595637724e-13
"Vd:p" -8.085840279375107e-07
"Vg:p" -1.246245571629316e-11
"Vs:p" 1.451033966560248e-22
"vds" 7.100000000000004e-01
"M1:ids" 8.109074867474431e-07
"D" 7.100000000000004e-01
"S" 0.000000000000000e+00
"G" 4.000000000000000e-01
"B" 0.000000000000000e+00
"M1.n1" 3.999999999364025e-01
"Vb:p" 9.066941031793018e-13
"Vd:p" -8.109033467011736e-07
"Vg:p" -1.244895067942800e-11
"Vs:p" 1.574874235575408e-22
"vds" 7.200000000000004e-01
"M1:ids" 8.132040604533316e-07
"D" 7.200000000000004e-01
"S" 0.000000000000000e+00
"G" 4.000000000000000e-01
"B" 0.000000000000000e+00
"M1.n1" 3.999999999364748e-01
"Vb:p" 9.548968290068327e-13
"Vd:p" -8.131999928728441e-07
"Vg:p" -1.243479976559387e-11
"Vs:p" 1.103230368375842e-22
"vds" 7.300000000000004e-01
"M1:ids" 8.154788005811302e-07
"D" 7.300000000000004e-01
"S" 0.000000000000000e+00
"G" 4.000000000000000e-01
"B" 0.000000000000000e+00
"M1.n1" 3.999999999365505e-01
"Vb:p" 1.009080464192761e-12
"Vd:p" -8.154748121036065e-07
"Vg:p" -1.241998675547293e-11
"Vs:p" 2.561776443404040e-23
"vds" 7.400000000000004e-01
"M1:ids" 8.177325230224086e-07
"D" 7.400000000000004e-01
"S" 0.000000000000000e+00
"G" 4.000000000000000e-01
"B" 0.000000000000000e+00
"M1.n1" 3.999999999366297e-01
"Vb:p" 1.069949242202935e-12
"Vd:p" -8.177286210061256e-07
"Vg:p" -1.240449503171013e-11
"Vs:p" -4.320959556471281e-23
"vds" 7.500000000000004e-01
"M1:ids" 8.199660153243422e-07
"D" 7.500000000000004e-01
"S" 0.000000000000000e+00
"G" 4.000000000000000e-01
"B" 0.000000000000000e+00
"M1.n1" 3.999999999367123e-01
"Vb:p" 1.138260686294185e-12
"Vd:p" -8.199622079023574e-07
"Vg:p" -1.238830756877979e-11
"Vs:p" -3.571685319969668e-23
"vds" 7.600000000000005e-01
"M1:ids" 8.221800374393918e-07
"D" 7.600000000000005e-01
"S" 0.000000000000000e+00
"G" 4.000000000000000e-01
"B" 0.000000000000000e+00
"M1.n1" 3.999999999367987e-01
"Vb:p" 1.214826843580889e-12
"Vd:p" -8.221763335744678e-07
"Vg:p" -1.237140692273661e-11
"Vs:p" -3.384726812380501e-23
"vds" 7.700000000000005e-01
"M1:ids" 8.243753224760446e-07
"D" 7.700000000000005e-01
"S" 0.000000000000000e+00
"G" 4.000000000000000e-01
"B" 0.000000000000000e+00
"M1.n1" 3.999999999368887e-01
"Vb:p" 1.300515365941667e-12
"Vd:p" -8.243717320166772e-07
"Vg:p" -1.235377522083243e-11
"Vs:p" 9.615383101715553e-23
"vds" 7.800000000000005e-01
"M1:ids" 8.265525774482188e-07
"D" 7.800000000000005e-01
"S" 0.000000000000000e+00
"G" 4.000000000000000e-01
"B" 0.000000000000000e+00
"M1.n1" 3.999999999369827e-01
"Vb:p" 1.396250435354414e-12
"Vd:p" -8.265491111856100e-07
"Vg:p" -1.233539415098274e-11
"Vs:p" 2.923123092278413e-22
"vds" 7.900000000000005e-01
"M1:ids" 8.287124840215137e-07
"D" 7.900000000000005e-01
"S" 0.000000000000000e+00
"G" 4.000000000000000e-01
"B" 0.000000000000000e+00
"M1.n1" 3.999999999370805e-01
"Vb:p" 1.503013532512639e-12
"Vd:p" -8.287091537473057e-07
"Vg:p" -1.231624495106648e-11
"Vs:p" 1.022752906674747e-22
"vds" 8.000000000000005e-01
"M1:ids" 8.308556992542762e-07
"D" 8.000000000000005e-01
"S" 0.000000000000000e+00
"G" 4.000000000000000e-01
"B" 0.000000000000000e+00
"M1.n1" 3.999999999371823e-01
"Vb:p" 1.621844048755627e-12
"Vd:p" -8.308525178189032e-07
"Vg:p" -1.229630839804490e-11
"Vs:p" 1.159456373041537e-23
"vds" 8.100000000000005e-01
"M1:ids" 8.329828563320289e-07
"D" 8.100000000000005e-01
"S" 0.000000000000000e+00
"G" 4.000000000000000e-01
"B" 0.000000000000000e+00
"M1.n1" 3.999999999372883e-01
"Vb:p" 1.753839742430609e-12
"Vd:p" -8.329798377035907e-07
"Vg:p" -1.227556479688508e-11
"Vs:p" 1.317296973231382e-22
"vds" 8.200000000000005e-01
"M1:ids" 8.350945652936802e-07
"D" 8.200000000000005e-01
"S" 0.000000000000000e+00
"G" 4.000000000000000e-01
"B" 0.000000000000000e+00
"M1.n1" 3.999999999373985e-01
"Vb:p" 1.900157041795988e-12
"Vd:p" -8.350917246170469e-07
"Vg:p" -1.225399396927562e-11
"Vs:p" 2.409255417993406e-22
"vds" 8.300000000000005e-01
"M1:ids" 8.371914137484048e-07
"D" 8.300000000000005e-01
"S" 0.000000000000000e+00
"G" 4.000000000000000e-01
"B" 0.000000000000000e+00
"M1.n1" 3.999999999375130e-01
"Vb:p" 2.062011197465044e-12
"Vd:p" -8.371887674045458e-07
"Vg:p" -1.223157524212158e-11
"Vs:p" 6.894313453866886e-23
"vds" 8.400000000000005e-01
"M1:ids" 8.392739675818216e-07
"D" 8.400000000000005e-01
"S" 0.000000000000000e+00
"G" 4.000000000000000e-01
"B" 0.000000000000000e+00
"M1.n1" 3.999999999376320e-01
"Vb:p" 2.240676288184421e-12
"Vd:p" -8.392715332471339e-07
"Vg:p" -1.220828743580712e-11
"Vs:p" 8.001174494236748e-23
"vds" 8.500000000000005e-01
"M1:ids" 8.413427716508040e-07
"D" 8.500000000000005e-01
"S" 0.000000000000000e+00
"G" 4.000000000000000e-01
"B" 0.000000000000000e+00
"M1.n1" 3.999999999377555e-01
"Vb:p" 2.437485084435876e-12
"Vd:p" -8.413405683562917e-07
"Vg:p" -1.218410885221315e-11
"Vs:p" -6.223365500417646e-23
"vds" 8.600000000000005e-01
"M1:ids" 8.433983504656553e-07
"D" 8.600000000000005e-01
"S" 0.000000000000000e+00
"G" 4.000000000000000e-01
"B" 0.000000000000000e+00
"M1.n1" 3.999999999378837e-01
"Vb:p" 2.653828774952079e-12
"Vd:p" -8.433963986559405e-07
"Vg:p" -1.215901726248047e-11
"Vs:p" 1.397350705169426e-22