HEADER
"PSFversion" "1.00"
"simulator" "spectre"
"version" "23.1.0.242.isr1"
"date" "2:57:56 PM, Fri Nov 29, 2024"
"design" "# Simulate DC sweeps of gate to source voltage"
"analysis type" "dc"
"analysis name" "vgs-003_vds"
"analysis description" "DC Analysis `vgs-003_vds': vds = (0 -> 1.2)"
"xVecSorted" "unsorted"
"tolerance.relative" 1.000000000000000e-03
"reltol" 1.000000000000000e-03
"abstol(V)" 1.000000000000000e-06
"abstol(I)" 1.000000000000000e-12
"temp" 2.700000000000000e+01
"tnom" 2.700000000000000e+01
"tempeffects" "all"
"gmindc" 1.000000000000000e-12
TYPE
"sweep" FLOAT DOUBLE PROP(
"key" "sweep"
)
"LogicV" FLOAT DOUBLE PROP(
"key" "node"
)
"Real" FLOAT DOUBLE PROP(
"units" ""
"key" "node"
"tolerance" 1.000000000000000e-06
)
"Tau" FLOAT DOUBLE PROP(
"units" "N*m"
"key" "node"
"tolerance" 1.000000000000000e-06
)
"Alpha" FLOAT DOUBLE PROP(
"units" "rads/s^2"
"key" "node"
"tolerance" 1.000000000000000e-06
)
"Omega" FLOAT DOUBLE PROP(
"units" "rads/s"
"key" "node"
"tolerance" 1.000000000000000e-06
)
"Theta" FLOAT DOUBLE PROP(
"units" "rads"
"key" "node"
"tolerance" 1.000000000000000e-06
)
"F" FLOAT DOUBLE PROP(
"units" "N"
"key" "node"
"tolerance" 1.000000000000000e-06
)
"Imp" FLOAT DOUBLE PROP(
"units" "m/s^3"
"key" "node"
"tolerance" 1.000000000000000e-06
)
"Acc" FLOAT DOUBLE PROP(
"units" "m/s^2"
"key" "node"
"tolerance" 1.000000000000000e-06
)
"Vel" FLOAT DOUBLE PROP(
"units" "m/s"
"key" "node"
"tolerance" 1.000000000000000e-06
)
"Pos" FLOAT DOUBLE PROP(
"units" "m"
"key" "node"
"tolerance" 1.000000000000000e-06
)
"Phi" FLOAT DOUBLE PROP(
"units" "Wb"
"key" "node"
"tolerance" 1.000000000000000e-09
)
"V" FLOAT DOUBLE PROP(
"units" "V"
"key" "node"
"tolerance" 1.000000000000000e-06
)
"I" FLOAT DOUBLE PROP(
"units" "A"
"key" "branch"
"tolerance" 1.000000000000000e-12
)
"MMF" FLOAT DOUBLE PROP(
"units" "A*turn"
"key" "node"
"tolerance" 1.000000000000000e-12
)
"Wb" FLOAT DOUBLE PROP(
"units" "Wb"
"key" "node"
"tolerance" 1.000000000000000e-09
)
"Temp" FLOAT DOUBLE PROP(
"units" "C"
"key" "node"
"tolerance" 1.000000000000000e-04
)
"Pwr" FLOAT DOUBLE PROP(
"units" "W"
"key" "node"
"tolerance" 1.000000000000000e-09
)
"U" FLOAT DOUBLE PROP(
"units" ""
"key" "node"
"tolerance" 1.000000000000000e-06
)
"V/Sec" FLOAT DOUBLE PROP(
"units" "V/s"
"key" "node"
"tolerance" 9.999999999999999e-05
)
"I/Sec" FLOAT DOUBLE PROP(
"units" "A/s"
"key" "node"
"tolerance" 1.000000000000000e-06
)
"1/Sec" FLOAT DOUBLE PROP(
"units" "1/s"
"key" "node"
"tolerance" 9.999999999999999e-05
)
"HOD" FLOAT DOUBLE PROP(
"units" ""
"key" "node"
"tolerance" 1.000000000000000e-02
)
"Q" FLOAT DOUBLE PROP(
"units" "coul"
"key" "node"
"tolerance" 1.000000000000000e-14
)
"A" FLOAT DOUBLE PROP(
"key" "inst"
)
SWEEP
"vds" "sweep" PROP(
"sweep_direction" 0
"plot" 0
"grid" 1
)
TRACE
"M1:ids" "A"
"D" "V"
"S" "V"
"G" "V"
"B" "V"
"M1.n1" "V"
"Vb:p" "I"
"Vd:p" "I"
"Vg:p" "I"
"Vs:p" "I"
VALUE
"vds" 0.000000000000000e+00
"M1:ids" 0.000000000000000e+00
"D" 0.000000000000000e+00
"S" 0.000000000000000e+00
"G" 6.000000000000001e-01
"B" 0.000000000000000e+00
"M1.n1" 5.999999995300556e-01
"Vb:p" 1.376299555551827e-17
"Vd:p" 4.599485694804646e-11
"Vg:p" -9.198972765908848e-11
"Vs:p" -2.675816190509672e-26
"vds" 1.000000000000000e-02
"M1:ids" 6.929704110233480e-07
"D" 1.000000000000000e-02
"S" 0.000000000000000e+00
"G" 6.000000000000001e-01
"B" 0.000000000000000e+00
"M1.n1" 5.999999995340721e-01
"Vb:p" 1.001457373467183e-14
"Vd:p" -6.929249892073275e-07
"Vg:p" -9.120350513276372e-11
"Vs:p" 2.975174389000390e-23
"vds" 2.000000000000000e-02
"M1:ids" 1.355638896691306e-06
"D" 2.000000000000000e-02
"S" 0.000000000000000e+00
"G" 6.000000000000001e-01
"B" 0.000000000000000e+00
"M1.n1" 5.999999995399262e-01
"Vb:p" 2.001515222344270e-14
"Vd:p" -1.355594285224432e-06
"Vg:p" -9.005758206298782e-11
"Vs:p" 1.323221398465793e-22
"vds" 3.000000000000000e-02
"M1:ids" 1.987918961497137e-06
"D" 3.000000000000000e-02
"S" 0.000000000000000e+00
"G" 6.000000000000001e-01
"B" 0.000000000000000e+00
"M1.n1" 5.999999995454020e-01
"Vb:p" 3.001557232468920e-14
"Vd:p" -1.987875108688347e-06
"Vg:p" -8.898573565354400e-11
"Vs:p" -1.522279908716623e-22
"vds" 4.000000000000000e-02
"M1:ids" 2.589734713248789e-06
"D" 4.000000000000000e-02
"S" 0.000000000000000e+00
"G" 6.000000000000001e-01
"B" 0.000000000000000e+00
"M1.n1" 5.999999995506640e-01
"Vb:p" 4.001588421334488e-14
"Vd:p" -2.589691589004927e-06
"Vg:p" -8.795571398367200e-11
"Vs:p" 3.506978215605779e-22
"vds" 5.000000000000000e-02
"M1:ids" 3.161022725515664e-06
"D" 5.000000000000000e-02
"S" 0.000000000000000e+00
"G" 6.000000000000001e-01
"B" 0.000000000000000e+00
"M1.n1" 5.999999995557759e-01
"Vb:p" 5.001612197315818e-14
"Vd:p" -3.160980308117591e-06
"Vg:p" -8.695507185382709e-11
"Vs:p" -2.581071092784498e-22
"vds" 6.000000000000000e-02
"M1:ids" 3.701734473407532e-06
"D" 6.000000000000000e-02
"S" 0.000000000000000e+00
"G" 6.000000000000001e-01
"B" 0.000000000000000e+00
"M1.n1" 5.999999995607614e-01
"Vb:p" 6.001630875730748e-14
"Vd:p" -3.701692744310776e-06
"Vg:p" -8.597916241966820e-11
"Vs:p" -3.606775052350259e-22
"vds" 7.000000000000001e-02
"M1:ids" 4.211839560090498e-06
"D" 7.000000000000001e-02
"S" 0.000000000000000e+00
"G" 6.000000000000001e-01
"B" 0.000000000000000e+00
"M1.n1" 5.999999995656301e-01
"Vb:p" 7.001646029427624e-14
"Vd:p" -4.211798502054877e-06
"Vg:p" -8.502614854416989e-11
"Vs:p" 1.386327948476967e-21
"vds" 8.000000000000000e-02
"M1:ids" 4.691330038432804e-06
"D" 8.000000000000000e-02
"S" 0.000000000000000e+00
"G" 6.000000000000001e-01
"B" 0.000000000000000e+00
"M1.n1" 5.999999995703849e-01
"Vb:p" 8.001658726956184e-14
"Vd:p" -4.691289634700266e-06
"Vg:p" -8.409543271566869e-11
"Vs:p" -2.448722194776009e-22
"vds" 9.000000000000000e-02
"M1:ids" 5.140226253406642e-06
"D" 9.000000000000000e-02
"S" 0.000000000000000e+00
"G" 6.000000000000001e-01
"B" 0.000000000000000e+00
"M1.n1" 5.999999995750253e-01
"Vb:p" 9.001669694366927e-14
"Vd:p" -5.140186487253545e-06
"Vg:p" -8.318709734814242e-11
"Vs:p" 6.749526216813745e-22
"vds" 9.999999999999999e-02
"M1:ids" 5.558584797013328e-06
"D" 9.999999999999999e-02
"S" 0.000000000000000e+00
"G" 6.000000000000001e-01
"B" 0.000000000000000e+00
"M1.n1" 5.999999995795484e-01
"Vb:p" 1.000167942512658e-13
"Vd:p" -5.558545651446303e-06
"Vg:p" -8.230169188271662e-11
"Vs:p" -3.937647297371459e-22
"vds" 1.100000000000000e-01
"M1:ids" 5.946509388252661e-06
"D" 1.100000000000000e-01
"S" 0.000000000000000e+00
"G" 6.000000000000001e-01
"B" 0.000000000000000e+00
"M1.n1" 5.999999995839498e-01
"Vb:p" 1.100168825478559e-13
"Vd:p" -5.946470845755231e-06
"Vg:p" -8.144015934517019e-11
"Vs:p" 9.131806380966119e-22
"vds" 1.200000000000000e-01
"M1:ids" 6.304165767790658e-06
"D" 1.200000000000000e-01
"S" 0.000000000000000e+00
"G" 6.000000000000001e-01
"B" 0.000000000000000e+00
"M1.n1" 5.999999995882223e-01
"Vb:p" 1.200169641169945e-13
"Vd:p" -6.304127810077988e-06
"Vg:p" -8.060382753182629e-11
"Vs:p" 4.598856624175787e-22
"vds" 1.300000000000000e-01
"M1:ids" 6.631802008021240e-06
"D" 1.300000000000000e-01
"S" 0.000000000000000e+00
"G" 6.000000000000001e-01
"B" 0.000000000000000e+00
"M1.n1" 5.999999995923572e-01
"Vb:p" 1.300170405148187e-13
"Vd:p" -6.631764615781741e-06
"Vg:p" -7.979443296245152e-11
"Vs:p" -8.933818197190967e-22
"vds" 1.400000000000000e-01
"M1:ids" 6.929775903879003e-06
"D" 1.400000000000000e-01
"S" 0.000000000000000e+00
"G" 6.000000000000001e-01
"B" 0.000000000000000e+00
"M1.n1" 5.999999995963433e-01
"Vb:p" 1.400171128040579e-13
"Vd:p" -6.929739056492989e-06
"Vg:p" -7.901415930000897e-11
"Vs:p" -5.823619093992343e-22
"vds" 1.500000000000000e-01
"M1:ids" 7.198591129975715e-06
"D" 1.500000000000000e-01
"S" 0.000000000000000e+00
"G" 6.000000000000001e-01
"B" 0.000000000000000e+00
"M1.n1" 5.999999996001671e-01
"Vb:p" 1.500171817129607e-13
"Vd:p" -7.198554805213345e-06
"Vg:p" -7.826567325282239e-11
"Vs:p" 5.955432828763531e-22
"vds" 1.600000000000000e-01
"M1:ids" 7.438943224080730e-06
"D" 1.600000000000000e-01
"S" 0.000000000000000e+00
"G" 6.000000000000001e-01
"B" 0.000000000000000e+00
"M1.n1" 5.999999996038123e-01
"Vb:p" 1.600172477432110e-13
"Vd:p" -7.438907397794765e-06
"Vg:p" -7.755213536936886e-11
"Vs:p" -8.139724809140821e-22
"vds" 1.700000000000000e-01
"M1:ids" 7.651774515570096e-06
"D" 1.700000000000000e-01
"S" 0.000000000000000e+00
"G" 6.000000000000001e-01
"B" 0.000000000000000e+00
"M1.n1" 5.999999996072606e-01
"Vb:p" 1.700173112431894e-13
"Vd:p" -7.651739161420432e-06
"Vg:p" -7.687715331040031e-11
"Vs:p" -3.722580338109932e-22
"vds" 1.800000000000000e-01
"M1:ids" 7.838333033984596e-06
"D" 1.800000000000000e-01
"S" 0.000000000000000e+00
"G" 6.000000000000001e-01
"B" 0.000000000000000e+00
"M1.n1" 5.999999996104919e-01
"Vb:p" 1.800173724576923e-13
"Vd:p" -7.838298123257753e-06
"Vg:p" -7.624463571279339e-11
"Vs:p" -1.111757501434084e-21
"vds" 1.900000000000000e-01
"M1:ids" 8.000223834658851e-06
"D" 1.900000000000000e-01
"S" 0.000000000000000e+00
"G" 6.000000000000001e-01
"B" 0.000000000000000e+00
"M1.n1" 5.999999996134863e-01
"Vb:p" 1.900174315616572e-13
"Vd:p" -8.000189336270371e-06
"Vg:p" -7.565850543310043e-11
"Vs:p" 1.181187156560857e-21
"vds" 2.000000000000000e-01
"M1:ids" 8.139433522261981e-06
"D" 2.000000000000000e-01
"S" 0.000000000000000e+00
"G" 6.000000000000001e-01
"B" 0.000000000000000e+00
"M1.n1" 5.999999996162257e-01
"Vb:p" 2.000174886830261e-13
"Vd:p" -8.139399403039811e-06
"Vg:p" -7.512225680494855e-11
"Vs:p" 1.070344954472598e-21
"vds" 2.100000000000000e-01
"M1:ids" 8.258304830828402e-06
"D" 2.100000000000000e-01
"S" 0.000000000000000e+00
"G" 6.000000000000001e-01
"B" 0.000000000000000e+00
"M1.n1" 5.999999996186977e-01
"Vb:p" 2.100175439182330e-13
"Vd:p" -8.258271056145195e-06
"Vg:p" -7.463840336906402e-11
"Vs:p" 1.684112968968482e-21
"vds" 2.200000000000001e-01
"M1:ids" 8.359445119745461e-06
"D" 2.200000000000001e-01
"S" 0.000000000000000e+00
"G" 6.000000000000001e-01
"B" 0.000000000000000e+00
"M1.n1" 5.999999996208967e-01
"Vb:p" 2.200175973426847e-13
"Vd:p" -8.359411654482470e-06
"Vg:p" -7.420794590661261e-11
"Vs:p" -1.687475207853044e-21
"vds" 2.300000000000001e-01
"M1:ids" 8.445573949986438e-06
"D" 2.300000000000001e-01
"S" 0.000000000000000e+00
"G" 6.000000000000001e-01
"B" 0.000000000000000e+00
"M1.n1" 5.999999996228272e-01
"Vb:p" 2.300176490178441e-13
"Vd:p" -8.445540759701375e-06
"Vg:p" -7.383004233167182e-11
"Vs:p" 1.745083508376647e-22
"vds" 2.400000000000001e-01
"M1:ids" 8.519342066516789e-06
"D" 2.400000000000001e-01
"S" 0.000000000000000e+00
"G" 6.000000000000001e-01
"B" 0.000000000000000e+00
"M1.n1" 5.999999996245030e-01
"Vb:p" 2.400176989960061e-13
"Vd:p" -8.519309118595959e-06
"Vg:p" -7.350201962475282e-11
"Vs:p" 2.374808780394875e-21
"vds" 2.500000000000001e-01
"M1:ids" 8.583168866965015e-06
"D" 2.500000000000001e-01
"S" 0.000000000000000e+00
"G" 6.000000000000001e-01
"B" 0.000000000000000e+00
"M1.n1" 5.999999996259451e-01
"Vb:p" 2.500177473235038e-13
"Vd:p" -8.583136131541797e-06
"Vg:p" -7.321973354000773e-11
"Vs:p" -1.504668292644975e-21
"vds" 2.600000000000001e-01
"M1:ids" 8.639136011121114e-06
"D" 2.600000000000001e-01
"S" 0.000000000000000e+00
"G" 6.000000000000001e-01
"B" 0.000000000000000e+00
"M1.n1" 5.999999996271793e-01
"Vb:p" 2.600177940428471e-13
"Vd:p" -8.639103461628897e-06
"Vg:p" -7.297814009747282e-11
"Vs:p" 1.070758544040391e-21
"vds" 2.700000000000001e-01
"M1:ids" 8.688948728808497e-06
"D" 2.700000000000001e-01
"S" 0.000000000000000e+00
"G" 6.000000000000001e-01
"B" 0.000000000000000e+00
"M1.n1" 5.999999996282330e-01
"Vb:p" 2.700178391941325e-13
"Vd:p" -8.688916342156878e-06
"Vg:p" -7.277188860791376e-11
"Vs:p" 3.744206284310262e-21
"vds" 2.800000000000001e-01
"M1:ids" 8.733952205047666e-06
"D" 2.800000000000001e-01
"S" 0.000000000000000e+00
"G" 6.000000000000001e-01
"B" 0.000000000000000e+00
"M1.n1" 5.999999996291326e-01
"Vb:p" 2.800178828159611e-13
"Vd:p" -8.733919961501467e-06
"Vg:p" -7.259579316478024e-11
"Vs:p" 1.587919187006784e-22
"vds" 2.900000000000001e-01
"M1:ids" 8.775179949257784e-06
"D" 2.900000000000001e-01
"S" 0.000000000000000e+00
"G" 6.000000000000001e-01
"B" 0.000000000000000e+00
"M1.n1" 5.999999996299024e-01
"Vb:p" 2.900179249460218e-13
"Vd:p" -8.775147832130997e-06
"Vg:p" -7.244512868187668e-11
"Vs:p" -1.858701596811611e-21
"vds" 3.000000000000001e-01
"M1:ids" 8.813413175379276e-06
"D" 3.000000000000001e-01
"S" 0.000000000000000e+00
"G" 6.000000000000001e-01
"B" 0.000000000000000e+00
"M1.n1" 5.999999996305632e-01
"Vb:p" 3.000179656214522e-13
"Vd:p" -8.813381170645234e-06
"Vg:p" -7.231576769543580e-11
"Vs:p" 2.068131561644386e-21
"vds" 3.100000000000001e-01
"M1:ids" 8.849237754255705e-06
"D" 3.100000000000001e-01
"S" 0.000000000000000e+00
"G" 6.000000000000001e-01
"B" 0.000000000000000e+00
"M1.n1" 5.999999996311332e-01
"Vb:p" 3.100180048790507e-13
"Vd:p" -8.849205850144603e-06
"Vg:p" -7.220420459040160e-11
"Vs:p" 2.578088395824237e-21
"vds" 3.200000000000001e-01
"M1:ids" 8.883092518593775e-06
"D" 3.200000000000001e-01
"S" 0.000000000000000e+00
"G" 6.000000000000001e-01
"B" 0.000000000000000e+00
"M1.n1" 5.999999996316271e-01
"Vb:p" 3.200180427553885e-13
"Vd:p" -8.883060705217718e-06
"Vg:p" -7.210751467125825e-11
"Vs:p" 1.300921543501453e-21
"vds" 3.300000000000001e-01
"M1:ids" 8.915307432658241e-06
"D" 3.300000000000001e-01
"S" 0.000000000000000e+00
"G" 6.000000000000001e-01
"B" 0.000000000000000e+00
"M1.n1" 5.999999996320574e-01
"Vb:p" 3.300180792868598e-13
"Vd:p" -8.915275701683560e-06
"Vg:p" -7.202328350282955e-11
"Vs:p" 2.069372372940488e-21
"vds" 3.400000000000001e-01
"M1:ids" 8.946132502571798e-06
"D" 3.400000000000001e-01
"S" 0.000000000000000e+00
"G" 6.000000000000001e-01
"B" 0.000000000000000e+00
"M1.n1" 5.999999996324342e-01
"Vb:p" 3.400181145096878e-13
"Vd:p" -8.946100846941639e-06
"Vg:p" -7.194952850649676e-11
"Vs:p" -1.648080737826660e-21
"vds" 3.500000000000001e-01
"M1:ids" 8.975759134940754e-06
"D" 3.500000000000001e-01
"S" 0.000000000000000e+00
"G" 6.000000000000001e-01
"B" 0.000000000000000e+00
"M1.n1" 5.999999996327657e-01
"Vb:p" 3.500181484599067e-13
"Vd:p" -8.975727548646113e-06
"Vg:p" -7.188462446897117e-11
"Vs:p" 2.704611742817038e-22
"vds" 3.600000000000002e-01
"M1:ids" 9.004335703287535e-06
"D" 3.600000000000002e-01
"S" 0.000000000000000e+00
"G" 6.000000000000001e-01
"B" 0.000000000000000e+00
"M1.n1" 5.999999996330589e-01
"Vb:p" 3.600181811733269e-13
"Vd:p" -9.004304181180209e-06
"Vg:p" -7.182723802476309e-11
"Vs:p" -2.192296272178733e-22
"vds" 3.700000000000002e-01
"M1:ids" 9.031978824135240e-06
"D" 3.700000000000002e-01
"S" 0.000000000000000e+00
"G" 6.000000000000001e-01
"B" 0.000000000000000e+00
"M1.n1" 5.999999996333193e-01
"Vb:p" 3.700182126854918e-13
"Vd:p" -9.031947361776517e-06
"Vg:p" -7.177627247498870e-11
"Vs:p" -6.549466514847349e-22
"vds" 3.800000000000002e-01
"M1:ids" 9.058781516516441e-06
"D" 3.800000000000002e-01
"S" 0.000000000000000e+00
"G" 6.000000000000001e-01
"B" 0.000000000000000e+00
"M1.n1" 5.999999996335514e-01
"Vb:p" 3.800182430316302e-13
"Vd:p" -9.058750110054588e-06
"Vg:p" -7.173082247644314e-11
"Vs:p" -2.441986883775349e-22
"vds" 3.900000000000002e-01
"M1:ids" 9.084819119872550e-06
"D" 3.900000000000002e-01
"S" 0.000000000000000e+00
"G" 6.000000000000001e-01
"B" 0.000000000000000e+00
"M1.n1" 5.999999996337593e-01
"Vb:p" 3.900182722466086e-13
"Vd:p" -9.084787765943855e-06
"Vg:p" -7.169013738101902e-11
"Vs:p" -2.394145588165760e-21
"vds" 4.000000000000002e-01
"M1:ids" 9.110153605651677e-06
"D" 4.000000000000002e-01
"S" 0.000000000000000e+00
"G" 6.000000000000001e-01
"B" 0.000000000000000e+00
"M1.n1" 5.999999996339460e-01
"Vb:p" 4.000183003648832e-13
"Vd:p" -9.110122301300434e-06
"Vg:p" -7.165359181337692e-11
"Vs:p" -7.584508961894440e-22
"vds" 4.100000000000002e-01
"M1:ids" 9.134836737456030e-06
"D" 4.100000000000002e-01
"S" 0.000000000000000e+00
"G" 6.000000000000001e-01
"B" 0.000000000000000e+00
"M1.n1" 5.999999996341142e-01
"Vb:p" 4.100183274403666e-13
"Vd:p" -9.134805480069251e-06
"Vg:p" -7.162066214607949e-11
"Vs:p" -1.762451176352716e-21
"vds" 4.200000000000002e-01
"M1:ids" 9.158912403283295e-06
"D" 4.200000000000002e-01
"S" 0.000000000000000e+00
"G" 6.000000000000001e-01
"B" 0.000000000000000e+00
"M1.n1" 5.999999996342662e-01
"Vb:p" 4.200183536736545e-13
"Vd:p" -9.158881190537648e-06
"Vg:p" -7.159090770594041e-11
"Vs:p" 1.924056583611886e-21
"vds" 4.300000000000002e-01
"M1:ids" 9.182418349634995e-06
"D" 4.300000000000002e-01
"S" 0.000000000000000e+00
"G" 6.000000000000001e-01
"B" 0.000000000000000e+00
"M1.n1" 5.999999996344040e-01
"Vb:p" 4.300183795993236e-13
"Vd:p" -9.182387179453460e-06
"Vg:p" -7.156395574328011e-11
"Vs:p" 5.889713491248182e-23
"vds" 4.400000000000002e-01
"M1:ids" 9.205387480931815e-06
"D" 4.400000000000002e-01
"S" 0.000000000000000e+00
"G" 6.000000000000001e-01
"B" 0.000000000000000e+00
"M1.n1" 5.999999996345289e-01
"Vb:p" 4.400184070716017e-13
"Vd:p" -9.205356351447856e-06
"Vg:p" -7.153948938135081e-11
"Vs:p" -2.116577166639005e-22
"vds" 4.500000000000002e-01
"M1:ids" 9.227848840923164e-06
"D" 4.500000000000002e-01
"S" 0.000000000000000e+00
"G" 6.000000000000001e-01
"B" 0.000000000000000e+00
"M1.n1" 5.999999996346426e-01
"Vb:p" 4.500184417986959e-13
"Vd:p" -9.227817750450940e-06
"Vg:p" -7.151723792291062e-11
"Vs:p" 7.889589483386209e-23
"vds" 4.600000000000002e-01
"M1:ids" 9.249828359824598e-06
"D" 4.600000000000002e-01
"S" 0.000000000000000e+00
"G" 6.000000000000001e-01
"B" 0.000000000000000e+00
"M1.n1" 5.999999996347462e-01
"Vb:p" 4.600184998152523e-13
"Vd:p" -9.249797306834491e-06
"Vg:p" -7.149696902249297e-11
"Vs:p" -2.572120992160534e-21
"vds" 4.700000000000003e-01
"M1:ids" 9.271349427633358e-06
"D" 4.700000000000003e-01
"S" 0.000000000000000e+00
"G" 6.000000000000001e-01
"B" 0.000000000000000e+00
"M1.n1" 5.999999996348406e-01
"Vb:p" 4.700186224414078e-13
"Vd:p" -9.271318410731343e-06
"Vg:p" -7.147848233843787e-11
"Vs:p" 1.105970036329253e-21
"vds" 4.800000000000003e-01
"M1:ids" 9.292433337542197e-06
"D" 4.800000000000003e-01
"S" 0.000000000000000e+00
"G" 6.000000000000001e-01
"B" 0.000000000000000e+00
"M1.n1" 5.999999996349268e-01
"Vb:p" 4.800189081521383e-13
"Vd:p" -9.292402355452560e-06
"Vg:p" -7.146160436219840e-11
"Vs:p" -6.847533282559477e-22
"vds" 4.900000000000003e-01
"M1:ids" 9.313099631587572e-06
"D" 4.900000000000003e-01
"S" 0.000000000000000e+00
"G" 6.000000000000001e-01
"B" 0.000000000000000e+00
"M1.n1" 5.999999996350056e-01
"Vb:p" 4.900195757272082e-13
"Vd:p" -9.313068683138651e-06
"Vg:p" -7.144618418788145e-11
"Vs:p" 8.946248977016668e-22
"vds" 5.000000000000002e-01
"M1:ids" 9.333366372202311e-06
"D" 5.000000000000002e-01
"S" 0.000000000000000e+00
"G" 6.000000000000001e-01
"B" 0.000000000000000e+00
"M1.n1" 5.999999996350776e-01
"Vb:p" 5.000210815486355e-13
"Vd:p" -9.333335456314164e-06
"Vg:p" -7.143209003623331e-11
"Vs:p" 6.031668854891252e-22
"vds" 5.100000000000002e-01
"M1:ids" 9.353250357233652e-06
"D" 5.100000000000002e-01
"S" 0.000000000000000e+00
"G" 6.000000000000001e-01
"B" 0.000000000000000e+00
"M1.n1" 5.999999996351434e-01
"Vb:p" 5.100243252222636e-13
"Vd:p" -9.353219472907857e-06
"Vg:p" -7.141920638761321e-11
"Vs:p" 1.311706348548283e-21
"vds" 5.200000000000002e-01
"M1:ids" 9.372767291540515e-06
"D" 5.200000000000002e-01
"S" 0.000000000000000e+00
"G" 6.000000000000001e-01
"B" 0.000000000000000e+00
"M1.n1" 5.999999996352036e-01
"Vb:p" 5.200309917844551e-13
"Vd:p" -9.372736437852243e-06
"Vg:p" -7.140743161096770e-11
"Vs:p" 1.630240862944420e-21
"vds" 5.300000000000002e-01
"M1:ids" 9.391931925032285e-06
"D" 5.300000000000002e-01
"S" 0.000000000000000e+00
"G" 6.000000000000001e-01
"B" 0.000000000000000e+00
"M1.n1" 5.999999996352585e-01
"Vb:p" 5.300440952068017e-13
"Vd:p" -9.391901101123518e-06
"Vg:p" -7.139667600379592e-11
"Vs:p" -1.570820760103289e-22
"vds" 5.400000000000003e-01
"M1:ids" 9.410758164609920e-06
"D" 5.400000000000003e-01
"S" 0.000000000000000e+00
"G" 6.000000000000001e-01
"B" 0.000000000000000e+00
"M1.n1" 5.999999996353087e-01
"Vb:p" 5.400688059439444e-13
"Vd:p" -9.410727369684863e-06
"Vg:p" -7.138686018740974e-11
"Vs:p" 7.532528969618939e-22
"vds" 5.500000000000003e-01
"M1:ids" 9.429259165693252e-06
"D" 5.500000000000003e-01
"S" 0.000000000000000e+00
"G" 6.000000000000001e-01
"B" 0.000000000000000e+00
"M1.n1" 5.999999996353543e-01
"Vb:p" 5.501136637654100e-13
"Vd:p" -9.429228399015884e-06
"Vg:p" -7.137791384794424e-11
"Vs:p" 7.883078159553549e-22
"vds" 5.600000000000003e-01
"M1:ids" 9.447447407687258e-06
"D" 5.600000000000003e-01
"S" 0.000000000000000e+00
"G" 6.000000000000001e-01
"B" 0.000000000000000e+00
"M1.n1" 5.999999996353960e-01
"Vb:p" 5.601922947285257e-13
"Vd:p" -9.447416668580357e-06
"Vg:p" -7.136977493332904e-11
"Vs:p" 1.043231400450015e-21
"vds" 5.700000000000003e-01
"M1:ids" 9.465334756741690e-06
"D" 5.700000000000003e-01
"S" 0.000000000000000e+00
"G" 6.000000000000001e-01
"B" 0.000000000000000e+00
"M1.n1" 5.999999996354337e-01
"Vb:p" 5.703257664531551e-13
"Vd:p" -9.465304044588339e-06
"Vg:p" -7.136238985141030e-11
"Vs:p" -8.046093992744958e-22
"vds" 5.800000000000003e-01
"M1:ids" 9.482932518402705e-06
"D" 5.800000000000003e-01
"S" 0.000000000000000e+00
"G" 6.000000000000001e-01
"B" 0.000000000000000e+00
"M1.n1" 5.999999996354678e-01
"Vb:p" 5.805457274762488e-13
"Vd:p" -9.482901832647226e-06
"Vg:p" -7.135571647194691e-11
"Vs:p" 1.572923897965624e-21
"vds" 5.900000000000003e-01
"M1:ids" 9.500251482180717e-06
"D" 5.900000000000003e-01
"S" 0.000000000000000e+00
"G" 6.000000000000001e-01
"B" 0.000000000000000e+00
"M1.n1" 5.999999996354984e-01
"Vb:p" 5.908984832172585e-13
"Vd:p" -9.500220822352298e-06
"Vg:p" -7.134970543947355e-11
"Vs:p" 8.009998684792156e-22
"vds" 6.000000000000003e-01
"M1:ids" 9.517301959618051e-06
"D" 6.000000000000003e-01
"S" 0.000000000000000e+00
"G" 6.000000000000001e-01
"B" 0.000000000000000e+00
"M1.n1" 5.999999996355271e-01
"Vb:p" 6.014501621018270e-13
"Vd:p" -9.517271325563614e-06
"Vg:p" -7.134409563818416e-11
"Vs:p" 2.881718585133475e-21
"vds" 6.100000000000003e-01
"M1:ids" 9.534093817101903e-06
"D" 6.100000000000003e-01
"S" 0.000000000000000e+00
"G" 6.000000000000001e-01
"B" 0.000000000000000e+00
"M1.n1" 5.999999996355553e-01
"Vb:p" 6.122931201733851e-13
"Vd:p" -9.534063209058829e-06
"Vg:p" -7.133858083510582e-11
"Vs:p" -1.231935395578952e-21
"vds" 6.200000000000003e-01
"M1:ids" 9.550636504406749e-06
"D" 6.200000000000003e-01
"S" 0.000000000000000e+00
"G" 6.000000000000001e-01
"B" 0.000000000000000e+00
"M1.n1" 5.999999996355835e-01
"Vb:p" 6.235537209754601e-13
"Vd:p" -9.550605922832455e-06
"Vg:p" -7.133306033489326e-11
"Vs:p" -1.845466655063256e-21
"vds" 6.300000000000003e-01
"M1:ids" 9.566939079746873e-06
"D" 6.300000000000003e-01
"S" 0.000000000000000e+00
"G" 6.000000000000001e-01
"B" 0.000000000000000e+00
"M1.n1" 5.999999996356119e-01
"Vb:p" 6.354016099066225e-13
"Vd:p" -9.566908525306085e-06
"Vg:p" -7.132749021584081e-11
"Vs:p" 2.299237533158546e-21
"vds" 6.400000000000003e-01
"M1:ids" 9.583010231959947e-06
"D" 6.400000000000003e-01
"S" 0.000000000000000e+00
"G" 6.000000000000001e-01
"B" 0.000000000000000e+00
"M1.n1" 5.999999996356409e-01
"Vb:p" 6.480605792746946e-13
"Vd:p" -9.582979705568860e-06
"Vg:p" -7.132183765101230e-11
"Vs:p" 1.371348274275971e-21
"vds" 6.500000000000004e-01
"M1:ids" 9.598858300319633e-06
"D" 6.500000000000004e-01
"S" 0.000000000000000e+00
"G" 6.000000000000001e-01
"B" 0.000000000000000e+00
"M1.n1" 5.999999996356703e-01
"Vb:p" 6.618210928228523e-13
"Vd:p" -9.598827803208990e-06
"Vg:p" -7.131607391250716e-11
"Vs:p" 4.380189044240134e-22
"vds" 6.600000000000004e-01
"M1:ids" 9.614491292375095e-06
"D" 6.600000000000004e-01
"S" 0.000000000000000e+00
"G" 6.000000000000001e-01
"B" 0.000000000000000e+00
"M1.n1" 5.999999996357004e-01
"Vb:p" 6.770545076775173e-13
"Vd:p" -9.614460826169306e-06
"Vg:p" -7.131017270753710e-11
"Vs:p" 3.322226734387077e-22
"vds" 6.700000000000004e-01
"M1:ids" 9.629916900139419e-06
"D" 6.700000000000004e-01
"S" 0.000000000000000e+00
"G" 6.000000000000001e-01
"B" 0.000000000000000e+00
"M1.n1" 5.999999996357314e-01
"Vb:p" 6.942289986955781e-13
"Vd:p" -9.629886466952241e-06
"Vg:p" -7.130410954552080e-11
"Vs:p" 5.848068249203372e-23
"vds" 6.800000000000004e-01
"M1:ids" 9.645142514886360e-06
"D" 6.800000000000004e-01
"S" 0.000000000000000e+00
"G" 6.000000000000001e-01
"B" 0.000000000000000e+00
"M1.n1" 5.999999996357633e-01
"Vb:p" 7.139271563131676e-13
"Vd:p" -9.645112117434184e-06
"Vg:p" -7.129786139255498e-11
"Vs:p" -4.444487755769973e-22
"vds" 6.900000000000004e-01
"M1:ids" 9.660175240765655e-06
"D" 6.900000000000004e-01
"S" 0.000000000000000e+00
"G" 6.000000000000001e-01
"B" 0.000000000000000e+00
"M1.n1" 5.999999996357963e-01
"Vb:p" 7.368651954230659e-13
"Vd:p" -9.660144882500464e-06
"Vg:p" -7.129140643424346e-11
"Vs:p" 1.654653263533722e-21
"vds" 7.000000000000004e-01
"M1:ids" 9.675021907409327e-06
"D" 7.000000000000004e-01
"S" 0.000000000000000e+00
"G" 6.000000000000001e-01
"B" 0.000000000000000e+00
"M1.n1" 5.999999996358304e-01
"Vb:p" 7.639136806340213e-13
"Vd:p" -9.674991592672306e-06
"Vg:p" -7.128472389143553e-11
"Vs:p" -5.242050934163082e-22
"vds" 7.100000000000004e-01
"M1:ids" 9.689689081666802e-06
"D" 7.100000000000004e-01
"S" 0.000000000000000e+00
"G" 6.000000000000001e-01
"B" 0.000000000000000e+00
"M1.n1" 5.999999996358658e-01
"Vb:p" 7.961196434502268e-13
"Vd:p" -9.689658815864212e-06
"Vg:p" -7.127779386775299e-11
"Vs:p" 1.840407009840162e-21
"vds" 7.200000000000004e-01
"M1:ids" 9.704183078585819e-06
"D" 7.200000000000004e-01
"S" 0.000000000000000e+00
"G" 6.000000000000001e-01
"B" 0.000000000000000e+00
"M1.n1" 5.999999996359026e-01
"Vb:p" 8.347299402359580e-13
"Vd:p" -9.704152868388484e-06
"Vg:p" -7.127059721920279e-11
"Vs:p" 5.787156387960042e-23
"vds" 7.300000000000004e-01
"M1:ids" 9.718509971732084e-06
"D" 7.300000000000004e-01
"S" 0.000000000000000e+00
"G" 6.000000000000001e-01
"B" 0.000000000000000e+00
"M1.n1" 5.999999996359409e-01
"Vb:p" 8.812156768988896e-13
"Vd:p" -9.718479825298998e-06
"Vg:p" -7.126311544063892e-11
"Vs:p" 1.548153759667520e-21
"vds" 7.400000000000004e-01
"M1:ids" 9.732675602924582e-06
"D" 7.400000000000004e-01
"S" 0.000000000000000e+00
"G" 6.000000000000001e-01
"B" 0.000000000000000e+00
"M1.n1" 5.999999996359806e-01
"Vb:p" 9.372975074440203e-13
"Vd:p" -9.732645530152589e-06
"Vg:p" -7.125533056578884e-11
"Vs:p" 2.745975167120551e-23
"vds" 7.500000000000004e-01
"M1:ids" 9.746685591453710e-06
"D" 7.500000000000004e-01
"S" 0.000000000000000e+00
"G" 6.000000000000001e-01
"B" 0.000000000000000e+00
"M1.n1" 5.999999996360220e-01
"Vb:p" 1.004971599150107e-12
"Vd:p" -9.746655604252184e-06
"Vg:p" -7.124722507856689e-11
"Vs:p" 1.223976507729160e-21
"vds" 7.600000000000005e-01
"M1:ids" 9.760545342832093e-06
"D" 7.600000000000005e-01
"S" 0.000000000000000e+00
"G" 6.000000000000001e-01
"B" 0.000000000000000e+00
"M1.n1" 5.999999996360651e-01
"Vb:p" 1.086536047167089e-12
"Vd:p" -9.760515455425111e-06
"Vg:p" -7.123878183396184e-11
"Vs:p" -2.085064427566168e-22
"vds" 7.700000000000005e-01
"M1:ids" 9.774260057126405e-06
"D" 7.700000000000005e-01
"S" 0.000000000000000e+00
"G" 6.000000000000001e-01
"B" 0.000000000000000e+00
"M1.n1" 5.999999996361101e-01
"Vb:p" 1.184617515747264e-12
"Vd:p" -9.774230286380909e-06
"Vg:p" -7.122998398715220e-11
"Vs:p" 1.214231286137520e-21
"vds" 7.800000000000005e-01
"M1:ids" 9.787834736905268e-06
"D" 7.800000000000005e-01
"S" 0.000000000000000e+00
"G" 6.000000000000001e-01
"B" 0.000000000000000e+00
"M1.n1" 5.999999996361569e-01
"Vb:p" 1.302197881905770e-12
"Vd:p" -9.787805102686357e-06
"Vg:p" -7.122081492972573e-11
"Vs:p" 1.799655439974854e-21
"vds" 7.900000000000005e-01
"M1:ids" 9.801274194836346e-06
"D" 7.900000000000005e-01
"S" 0.000000000000000e+00
"G" 6.000000000000001e-01
"B" 0.000000000000000e+00
"M1.n1" 5.999999996362058e-01
"Vb:p" 1.442640659762415e-12
"Vd:p" -9.801244720388602e-06
"Vg:p" -7.121125823210102e-11
"Vs:p" 2.989171642563811e-22
"vds" 8.000000000000005e-01
"M1:ids" 9.814583060958872e-06
"D" 8.000000000000005e-01
"S" 0.000000000000000e+00
"G" 6.000000000000001e-01
"B" 0.000000000000000e+00
"M1.n1" 5.999999996362566e-01
"Vb:p" 1.609716989774874e-12
"Vd:p" -9.814553773314234e-06
"Vg:p" -7.120129759134545e-11
"Vs:p" 1.800228758989546e-22
"vds" 8.100000000000005e-01
"M1:ids" 9.827765789655158e-06
"D" 8.100000000000005e-01
"S" 0.000000000000000e+00
"G" 6.000000000000001e-01
"B" 0.000000000000000e+00
"M1.n1" 5.999999996363097e-01
"Vb:p" 1.807630986120424e-12
"Vd:p" -9.827736720065655e-06
"Vg:p" -7.119091678373647e-11
"Vs:p" -7.788087010207159e-22
"vds" 8.200000000000005e-01
"M1:ids" 9.840826666340770e-06
"D" 8.200000000000005e-01
"S" 0.000000000000000e+00
"G" 6.000000000000001e-01
"B" 0.000000000000000e+00
"M1.n1" 5.999999996363650e-01
"Vb:p" 2.041044247164581e-12
"Vd:p" -9.840797850736158e-06
"Vg:p" -7.118009962146990e-11
"Vs:p" -5.168250913886867e-22
"vds" 8.300000000000005e-01
"M1:ids" 9.853769813890033e-06
"D" 8.300000000000005e-01
"S" 0.000000000000000e+00
"G" 6.000000000000001e-01
"B" 0.000000000000000e+00
"M1.n1" 5.999999996364225e-01
"Vb:p" 2.315099347819683e-12
"Vd:p" -9.853741293358759e-06
"Vg:p" -7.116882991302385e-11
"Vs:p" 7.416960688630930e-23
"vds" 8.400000000000005e-01
"M1:ids" 9.866599198812665e-06
"D" 8.400000000000005e-01
"S" 0.000000000000000e+00
"G" 6.000000000000001e-01
"B" 0.000000000000000e+00
"M1.n1" 5.999999996364824e-01
"Vb:p" 2.635442148182826e-12
"Vd:p" -9.866571020105547e-06
"Vg:p" -7.115709142673565e-11
"Vs:p" 1.177460522970123e-21
"vds" 8.500000000000005e-01
"M1:ids" 9.879318637194614e-06
"D" 8.500000000000005e-01
"S" 0.000000000000000e+00
"G" 6.000000000000001e-01
"B" 0.000000000000000e+00
"M1.n1" 5.999999996365449e-01
"Vb:p" 3.008242769712753e-12
"Vd:p" -9.879290853248561e-06
"Vg:p" -7.114486785720429e-11
"Vs:p" 3.806077120945282e-22
"vds" 8.600000000000005e-01
"M1:ids" 9.891931800413647e-06
"D" 8.600000000000005e-01
"S" 0.000000000000000e+00
"G" 6.000000000000001e-01
"B" 0.000000000000000e+00
"M1.n1" 5.999999996366099e-01
"Vb:p" 3.440215107954846e-12
"Vd:p" -9.891904470896395e-06
"Vg:p" -7.113214279418942e-11
"Vs:p" 1.039739583323606e-22