HEADER
"PSFversion" "1.00"
"simulator" "spectre"
"version" "23.1.0.242.isr1"
"date" "2:57:56 PM, Fri Nov 29, 2024"
"design" "# Simulate DC sweeps of gate to source voltage"
"analysis type" "dc"
"analysis name" "vgs-006_vds"
"analysis description" "DC Analysis `vgs-006_vds': vds = (0 -> 1.2)"
"xVecSorted" "unsorted"
"tolerance.relative" 1.000000000000000e-03
"reltol" 1.000000000000000e-03
"abstol(V)" 1.000000000000000e-06
"abstol(I)" 1.000000000000000e-12
"temp" 2.700000000000000e+01
"tnom" 2.700000000000000e+01
"tempeffects" "all"
"gmindc" 1.000000000000000e-12
TYPE
"sweep" FLOAT DOUBLE PROP(
"key" "sweep"
)
"LogicV" FLOAT DOUBLE PROP(
"key" "node"
)
"Real" FLOAT DOUBLE PROP(
"units" ""
"key" "node"
"tolerance" 1.000000000000000e-06
)
"Tau" FLOAT DOUBLE PROP(
"units" "N*m"
"key" "node"
"tolerance" 1.000000000000000e-06
)
"Alpha" FLOAT DOUBLE PROP(
"units" "rads/s^2"
"key" "node"
"tolerance" 1.000000000000000e-06
)
"Omega" FLOAT DOUBLE PROP(
"units" "rads/s"
"key" "node"
"tolerance" 1.000000000000000e-06
)
"Theta" FLOAT DOUBLE PROP(
"units" "rads"
"key" "node"
"tolerance" 1.000000000000000e-06
)
"F" FLOAT DOUBLE PROP(
"units" "N"
"key" "node"
"tolerance" 1.000000000000000e-06
)
"Imp" FLOAT DOUBLE PROP(
"units" "m/s^3"
"key" "node"
"tolerance" 1.000000000000000e-06
)
"Acc" FLOAT DOUBLE PROP(
"units" "m/s^2"
"key" "node"
"tolerance" 1.000000000000000e-06
)
"Vel" FLOAT DOUBLE PROP(
"units" "m/s"
"key" "node"
"tolerance" 1.000000000000000e-06
)
"Pos" FLOAT DOUBLE PROP(
"units" "m"
"key" "node"
"tolerance" 1.000000000000000e-06
)
"Phi" FLOAT DOUBLE PROP(
"units" "Wb"
"key" "node"
"tolerance" 1.000000000000000e-09
)
"V" FLOAT DOUBLE PROP(
"units" "V"
"key" "node"
"tolerance" 1.000000000000000e-06
)
"I" FLOAT DOUBLE PROP(
"units" "A"
"key" "branch"
"tolerance" 1.000000000000000e-12
)
"MMF" FLOAT DOUBLE PROP(
"units" "A*turn"
"key" "node"
"tolerance" 1.000000000000000e-12
)
"Wb" FLOAT DOUBLE PROP(
"units" "Wb"
"key" "node"
"tolerance" 1.000000000000000e-09
)
"Temp" FLOAT DOUBLE PROP(
"units" "C"
"key" "node"
"tolerance" 1.000000000000000e-04
)
"Pwr" FLOAT DOUBLE PROP(
"units" "W"
"key" "node"
"tolerance" 1.000000000000000e-09
)
"U" FLOAT DOUBLE PROP(
"units" ""
"key" "node"
"tolerance" 1.000000000000000e-06
)
"V/Sec" FLOAT DOUBLE PROP(
"units" "V/s"
"key" "node"
"tolerance" 9.999999999999999e-05
)
"I/Sec" FLOAT DOUBLE PROP(
"units" "A/s"
"key" "node"
"tolerance" 1.000000000000000e-06
)
"1/Sec" FLOAT DOUBLE PROP(
"units" "1/s"
"key" "node"
"tolerance" 9.999999999999999e-05
)
"HOD" FLOAT DOUBLE PROP(
"units" ""
"key" "node"
"tolerance" 1.000000000000000e-02
)
"Q" FLOAT DOUBLE PROP(
"units" "coul"
"key" "node"
"tolerance" 1.000000000000000e-14
)
"A" FLOAT DOUBLE PROP(
"key" "inst"
)
SWEEP
"vds" "sweep" PROP(
"sweep_direction" 0
"plot" 0
"grid" 1
)
TRACE
"M1:ids" "A"
"D" "V"
"S" "V"
"G" "V"
"B" "V"
"M1.n1" "V"
"Vb:p" "I"
"Vd:p" "I"
"Vg:p" "I"
"Vs:p" "I"
VALUE
"vds" 0.000000000000000e+00
"M1:ids" 0.000000000000000e+00
"D" 0.000000000000000e+00
"S" 0.000000000000000e+00
"G" 1.200000000000000e+00
"B" 0.000000000000000e+00
"M1.n1" 1.199999987691419e+00
"Vb:p" 1.171447455764498e-13
"Vd:p" 1.204618627091730e-09
"Vg:p" -2.409354398929036e-09
"Vs:p" 9.547230227115510e-26
"vds" 1.000000000000000e-02
"M1:ids" 2.368511887671972e-06
"D" 1.000000000000000e-02
"S" 0.000000000000000e+00
"G" 1.200000000000000e+00
"B" 0.000000000000000e+00
"M1.n1" 1.199999987798007e+00
"Vb:p" 1.279280161544974e-13
"Vd:p" -2.367321709177376e-06
"Vg:p" -2.388490277204541e-09
"Vs:p" 2.160216822861914e-23
"vds" 2.000000000000000e-02
"M1:ids" 4.712324259440090e-06
"D" 2.000000000000000e-02
"S" 0.000000000000000e+00
"G" 1.200000000000000e+00
"B" 0.000000000000000e+00
"M1.n1" 1.199999987953368e+00
"Vb:p" 1.386951849691848e-13
"Vd:p" -4.711154825705599e-06
"Vg:p" -2.358079005278330e-09
"Vs:p" 1.034071237993556e-21
"vds" 3.000000000000000e-02
"M1:ids" 7.031284573026067e-06
"D" 3.000000000000000e-02
"S" 0.000000000000000e+00
"G" 1.200000000000000e+00
"B" 0.000000000000000e+00
"M1.n1" 1.199999988099089e+00
"Vb:p" 1.494461518427808e-13
"Vd:p" -7.030134570440582e-06
"Vg:p" -2.329554729864878e-09
"Vs:p" 2.168167927911339e-22
"vds" 4.000000000000000e-02
"M1:ids" 9.325243765431149e-06
"D" 4.000000000000000e-02
"S" 0.000000000000000e+00
"G" 1.200000000000000e+00
"B" 0.000000000000000e+00
"M1.n1" 1.199999988239757e+00
"Vb:p" 1.601808223324882e-13
"Vd:p" -9.324112481034992e-06
"Vg:p" -2.302019420969327e-09
"Vs:p" -1.148031217921455e-21
"vds" 5.000000000000000e-02
"M1:ids" 1.159405649832888e-05
"D" 5.000000000000000e-02
"S" 0.000000000000000e+00
"G" 1.200000000000000e+00
"B" 0.000000000000000e+00
"M1.n1" 1.199999988377111e+00
"Vb:p" 1.708991149670568e-13
"Vd:p" -1.159294344727332e-05
"Vg:p" -2.275133008295245e-09
"Vs:p" 3.052391932622542e-21
"vds" 6.000000000000000e-02
"M1:ids" 1.383758138581821e-05
"D" 6.000000000000000e-02
"S" 0.000000000000000e+00
"G" 1.200000000000000e+00
"B" 0.000000000000000e+00
"M1.n1" 1.199999988511841e+00
"Vb:p" 1.816009660285837e-13
"Vd:p" -1.383648617478766e-05
"Vg:p" -2.248760153285712e-09
"Vs:p" 1.682580838235006e-21
"vds" 7.000000000000001e-02
"M1:ids" 1.605568120446423e-05
"D" 7.000000000000001e-02
"S" 0.000000000000000e+00
"G" 1.200000000000000e+00
"B" 0.000000000000000e+00
"M1.n1" 1.199999988644277e+00
"Vb:p" 1.922863325571375e-13
"Vd:p" -1.605460348439285e-05
"Vg:p" -2.222836398578294e-09
"Vs:p" 4.079750253414515e-21
"vds" 8.000000000000000e-02
"M1:ids" 1.824822308497378e-05
"D" 8.000000000000000e-02
"S" 0.000000000000000e+00
"G" 1.200000000000000e+00
"B" 0.000000000000000e+00
"M1.n1" 1.199999988774600e+00
"Vb:p" 2.029551941168297e-13
"Vd:p" -1.824716253176367e-05
"Vg:p" -2.197326185217696e-09
"Vs:p" 1.474131323871645e-21
"vds" 9.000000000000000e-02
"M1:ids" 2.041507868503151e-05
"D" 9.000000000000000e-02
"S" 0.000000000000000e+00
"G" 1.200000000000000e+00
"B" 0.000000000000000e+00
"M1.n1" 1.199999988902923e+00
"Vb:p" 2.136075536922861e-13
"Vd:p" -2.041403499056403e-05
"Vg:p" -2.172207417396777e-09
"Vs:p" 2.470056781382989e-21
"vds" 9.999999999999999e-02
"M1:ids" 2.255612434298904e-05
"D" 9.999999999999999e-02
"S" 0.000000000000000e+00
"G" 1.200000000000000e+00
"B" 0.000000000000000e+00
"M1.n1" 1.199999989029324e+00
"Vb:p" 2.242434379691772e-13
"Vd:p" -2.255509721047806e-05
"Vg:p" -2.147464950713162e-09
"Vs:p" -2.354060551023767e-21
"vds" 1.100000000000000e-01
"M1:ids" 2.467124121226349e-05
"D" 1.100000000000000e-01
"S" 0.000000000000000e+00
"G" 1.200000000000000e+00
"B" 0.000000000000000e+00
"M1.n1" 1.199999989153860e+00
"Vb:p" 2.348628971743911e-13
"Vd:p" -2.467023035364865e-05
"Vg:p" -2.123087532816880e-09
"Vs:p" -7.592563300140272e-22
"vds" 1.200000000000000e-01
"M1:ids" 2.676031537646015e-05
"D" 1.200000000000000e-01
"S" 0.000000000000000e+00
"G" 1.200000000000000e+00
"B" 0.000000000000000e+00
"M1.n1" 1.199999989276577e+00
"Vb:p" 2.454660045984556e-13
"Vd:p" -2.675932051084266e-05
"Vg:p" -2.099066238653307e-09
"Vs:p" 3.436203736847426e-21
"vds" 1.300000000000000e-01
"M1:ids" 2.882323794538229e-05
"D" 1.300000000000000e-01
"S" 0.000000000000000e+00
"G" 1.200000000000000e+00
"B" 0.000000000000000e+00
"M1.n1" 1.199999989397512e+00
"Vb:p" 2.560528558868190e-13
"Vd:p" -2.882225879803226e-05
"Vg:p" -2.075393613428518e-09
"Vs:p" -5.392262870749218e-22
"vds" 1.400000000000000e-01
"M1:ids" 3.085990513223354e-05
"D" 1.400000000000000e-01
"S" 0.000000000000000e+00
"G" 1.200000000000000e+00
"B" 0.000000000000000e+00
"M1.n1" 1.199999989516700e+00
"Vb:p" 2.666235681620440e-13
"Vd:p" -3.085894143392761e-05
"Vg:p" -2.052063175966729e-09
"Vs:p" -1.366406899635447e-21
"vds" 1.500000000000000e-01
"M1:ids" 3.287021831244851e-05
"D" 1.500000000000000e-01
"S" 0.000000000000000e+00
"G" 1.200000000000000e+00
"B" 0.000000000000000e+00
"M1.n1" 1.199999989634169e+00
"Vb:p" 2.771782790223042e-13
"Vd:p" -3.286926979900831e-05
"Vg:p" -2.029069116950300e-09
"Vs:p" -3.199439137075449e-21
"vds" 1.600000000000000e-01
"M1:ids" 3.485408406470670e-05
"D" 1.600000000000000e-01
"S" 0.000000000000000e+00
"G" 1.200000000000000e+00
"B" 0.000000000000000e+00
"M1.n1" 1.199999989749946e+00
"Vb:p" 2.877171454500169e-13
"Vd:p" -3.485315047666445e-05
"Vg:p" -2.006406108003563e-09
"Vs:p" -3.121684159472972e-21
"vds" 1.700000000000000e-01
"M1:ids" 3.681141419479552e-05
"D" 1.700000000000000e-01
"S" 0.000000000000000e+00
"G" 1.200000000000000e+00
"B" 0.000000000000000e+00
"M1.n1" 1.199999989864058e+00
"Vb:p" 2.982403426565083e-13
"Vd:p" -3.681049527714236e-05
"Vg:p" -1.984069176604917e-09
"Vs:p" 5.219605137489267e-21
"vds" 1.800000000000000e-01
"M1:ids" 3.874212574308112e-05
"D" 1.800000000000000e-01
"S" 0.000000000000000e+00
"G" 1.200000000000000e+00
"B" 0.000000000000000e+00
"M1.n1" 1.199999989976528e+00
"Vb:p" 3.087480628830711e-13
"Vd:p" -3.874122124507159e-05
"Vg:p" -1.962053621588337e-09
"Vs:p" -1.561621524197962e-21
"vds" 1.900000000000000e-01
"M1:ids" 4.064614097643212e-05
"D" 1.900000000000000e-01
"S" 0.000000000000000e+00
"G" 1.200000000000000e+00
"B" 0.000000000000000e+00
"M1.n1" 1.199999990087379e+00
"Vb:p" 3.192405141747669e-13
"Vd:p" -4.064525065142709e-05
"Vg:p" -1.940354954514732e-09
"Vs:p" -3.411197373799050e-21
"vds" 2.000000000000000e-01
"M1:ids" 4.252338736551073e-05
"D" 2.000000000000000e-01
"S" 0.000000000000000e+00
"G" 1.200000000000000e+00
"B" 0.000000000000000e+00
"M1.n1" 1.199999990196634e+00
"Vb:p" 3.297179191404607e-13
"Vd:p" -4.252251097084826e-05
"Vg:p" -1.918968858027544e-09
"Vs:p" -1.406111568768067e-21
"vds" 2.100000000000000e-01
"M1:ids" 4.437379754840758e-05
"D" 2.100000000000000e-01
"S" 0.000000000000000e+00
"G" 1.200000000000000e+00
"B" 0.000000000000000e+00
"M1.n1" 1.199999990304313e+00
"Vb:p" 3.401805137103843e-13
"Vd:p" -4.437293484529293e-05
"Vg:p" -1.897891155663509e-09
"Vs:p" -1.488829629416039e-21
"vds" 2.200000000000001e-01
"M1:ids" 4.619730928163912e-05
"D" 2.200000000000001e-01
"S" 0.000000000000000e+00
"G" 1.200000000000000e+00
"B" 0.000000000000000e+00
"M1.n1" 1.199999990410437e+00
"Vb:p" 3.506285459008420e-13
"Vd:p" -4.619646003504993e-05
"Vg:p" -1.877117789584025e-09
"Vs:p" -1.272108307105151e-21
"vds" 2.300000000000001e-01
"M1:ids" 4.799386537956982e-05
"D" 2.300000000000001e-01
"S" 0.000000000000000e+00
"G" 1.200000000000000e+00
"B" 0.000000000000000e+00
"M1.n1" 1.199999990515026e+00
"Vb:p" 3.610622745943140e-13
"Vd:p" -4.799302935817191e-05
"Vg:p" -1.856644803911907e-09
"Vs:p" -3.005878865550314e-21
"vds" 2.400000000000001e-01
"M1:ids" 4.976341364334034e-05
"D" 2.400000000000001e-01
"S" 0.000000000000000e+00
"G" 1.200000000000000e+00
"B" 0.000000000000000e+00
"M1.n1" 1.199999990618101e+00
"Vb:p" 3.714819683420595e-13
"Vd:p" -4.976259061941129e-05
"Vg:p" -1.836468332123646e-09
"Vs:p" 3.293133806614438e-22
"vds" 2.500000000000001e-01
"M1:ids" 5.150590678040386e-05
"D" 2.500000000000001e-01
"S" 0.000000000000000e+00
"G" 1.200000000000000e+00
"B" 0.000000000000000e+00
"M1.n1" 1.199999990719681e+00
"Vb:p" 3.818879041953165e-13
"Vd:p" -5.150509652976393e-05
"Vg:p" -1.816584587438660e-09
"Vs:p" -5.594954182841281e-21
"vds" 2.600000000000001e-01
"M1:ids" 5.322130231577981e-05
"D" 2.600000000000001e-01
"S" 0.000000000000000e+00
"G" 1.200000000000000e+00
"B" 0.000000000000000e+00
"M1.n1" 1.199999990819783e+00
"Vb:p" 3.922803665703786e-13
"Vd:p" -5.322050461772659e-05
"Vg:p" -1.796989855469411e-09
"Vs:p" -1.214291596100492e-20
"vds" 2.700000000000001e-01
"M1:ids" 5.490956249613363e-05
"D" 2.700000000000001e-01
"S" 0.000000000000000e+00
"G" 1.200000000000000e+00
"B" 0.000000000000000e+00
"M1.n1" 1.199999990918428e+00
"Vb:p" 4.026596461519335e-13
"Vd:p" -5.490877713338068e-05
"Vg:p" -1.777680488611875e-09
"Vs:p" -4.333473572858859e-22
"vds" 2.800000000000001e-01
"M1:ids" 5.657065418778684e-05
"D" 2.800000000000001e-01
"S" 0.000000000000000e+00
"G" 1.200000000000000e+00
"B" 0.000000000000000e+00
"M1.n1" 1.199999991015634e+00
"Vb:p" 4.130260388384114e-13
"Vd:p" -5.656988094640546e-05
"Vg:p" -1.758652901802555e-09
"Vs:p" -6.235987505914600e-22
"vds" 2.900000000000001e-01
"M1:ids" 5.820454876975183e-05
"D" 2.900000000000001e-01
"S" 0.000000000000000e+00
"G" 1.200000000000000e+00
"B" 0.000000000000000e+00
"M1.n1" 1.199999991111418e+00
"Vb:p" 4.233798447323548e-13
"Vd:p" -5.820378743911422e-05
"Vg:p" -1.739903569370500e-09
"Vs:p" -8.329612894390599e-21
"vds" 3.000000000000001e-01
"M1:ids" 5.981122202286987e-05
"D" 3.000000000000001e-01
"S" 0.000000000000000e+00
"G" 1.200000000000000e+00
"B" 0.000000000000000e+00
"M1.n1" 1.199999991205798e+00
"Vb:p" 4.337213671782296e-13
"Vd:p" -5.981047239559457e-05
"Vg:p" -1.721429022784078e-09
"Vs:p" -9.988937645916839e-21
"vds" 3.100000000000001e-01
"M1:ids" 6.139065401611609e-05
"D" 3.100000000000001e-01
"S" 0.000000000000000e+00
"G" 1.200000000000000e+00
"B" 0.000000000000000e+00
"M1.n1" 1.199999991298792e+00
"Vb:p" 4.440509118494969e-13
"Vd:p" -6.138991588801439e-05
"Vg:p" -1.703225849144049e-09
"Vs:p" 5.585217598996965e-21
"vds" 3.200000000000001e-01
"M1:ids" 6.294282899111784e-05
"D" 3.200000000000001e-01
"S" 0.000000000000000e+00
"G" 1.200000000000000e+00
"B" 0.000000000000000e+00
"M1.n1" 1.199999991390417e+00
"Vb:p" 4.543687858862341e-13
"Vd:p" -6.294210216114014e-05
"Vg:p" -1.685290690311859e-09
"Vs:p" 3.064713712636320e-20
"vds" 3.300000000000001e-01
"M1:ids" 6.446773524591350e-05
"D" 3.300000000000001e-01
"S" 0.000000000000000e+00
"G" 1.200000000000000e+00
"B" 0.000000000000000e+00
"M1.n1" 1.199999991480689e+00
"Vb:p" 4.646752970841374e-13
"Vd:p" -6.446701951609732e-05
"Vg:p" -1.667620242590268e-09
"Vs:p" 1.451545949211945e-20
"vds" 3.400000000000001e-01
"M1:ids" 6.596536501896941e-05
"D" 3.400000000000001e-01
"S" 0.000000000000000e+00
"G" 1.200000000000000e+00
"B" 0.000000000000000e+00
"M1.n1" 1.199999991569626e+00
"Vb:p" 4.749707531352207e-13
"Vd:p" -6.596466019438638e-05
"Vg:p" -1.650211256894169e-09
"Vs:p" 2.340103496039868e-20
"vds" 3.500000000000001e-01
"M1:ids" 6.743571437445439e-05
"D" 3.500000000000001e-01
"S" 0.000000000000000e+00
"G" 1.200000000000000e+00
"B" 0.000000000000000e+00
"M1.n1" 1.199999991657243e+00
"Vb:p" 4.852554609202023e-13
"Vd:p" -6.743502026315803e-05
"Vg:p" -1.633060539366400e-09
"Vs:p" 6.964954860735415e-21
"vds" 3.600000000000002e-01
"M1:ids" 6.887878308977147e-05
"D" 3.600000000000002e-01
"S" 0.000000000000000e+00
"G" 1.200000000000000e+00
"B" 0.000000000000000e+00
"M1.n1" 1.199999991743557e+00
"Vb:p" 4.955297258521596e-13
"Vd:p" -6.887809950274395e-05
"Vg:p" -1.616164952406133e-09
"Vs:p" 8.078335980527989e-21
"vds" 3.700000000000002e-01
"M1:ids" 7.029457454634362e-05
"D" 3.700000000000002e-01
"S" 0.000000000000000e+00
"G" 1.200000000000000e+00
"B" 0.000000000000000e+00
"M1.n1" 1.199999991828583e+00
"Vb:p" 5.057938512707081e-13
"Vd:p" -7.029390129744243e-05
"Vg:p" -1.599521416088408e-09
"Vs:p" -3.795010547354369e-21
"vds" 3.800000000000002e-01
"M1:ids" 7.168309562466122e-05
"D" 3.800000000000002e-01
"S" 0.000000000000000e+00
"G" 1.200000000000000e+00
"B" 0.000000000000000e+00
"M1.n1" 1.199999991912337e+00
"Vb:p" 5.160481378857161e-13
"Vd:p" -7.168243253056488e-05
"Vg:p" -1.583126909962297e-09
"Vs:p" 1.392486448886800e-20
"vds" 3.900000000000002e-01
"M1:ids" 7.304435660461998e-05
"D" 3.900000000000002e-01
"S" 0.000000000000000e+00
"G" 1.200000000000000e+00
"B" 0.000000000000000e+00
"M1.n1" 1.199999991994834e+00
"Vb:p" 5.262928832693082e-13
"Vd:p" -7.304370348477237e-05
"Vg:p" -1.566978475223594e-09
"Vs:p" 2.521586789610542e-20
"vds" 4.000000000000002e-01
"M1:ids" 7.437837107221039e-05
"D" 4.000000000000002e-01
"S" 0.000000000000000e+00
"G" 1.200000000000000e+00
"B" 0.000000000000000e+00
"M1.n1" 1.199999992076089e+00
"Vb:p" 5.365283813946608e-13
"Vd:p" -7.437772774876537e-05
"Vg:p" -1.551073217264826e-09
"Vs:p" 1.906491699882690e-20
"vds" 4.100000000000002e-01
"M1:ids" 7.568515583367355e-05
"D" 4.100000000000002e-01
"S" 0.000000000000000e+00
"G" 1.200000000000000e+00
"B" 0.000000000000000e+00
"M1.n1" 1.199999992156116e+00
"Vb:p" 5.467549222200070e-13
"Vd:p" -7.568452213143632e-05
"Vg:p" -1.535408308612757e-09
"Vs:p" -7.186594508158616e-21
"vds" 4.200000000000002e-01
"M1:ids" 7.696473083830085e-05
"D" 4.200000000000002e-01
"S" 0.000000000000000e+00
"G" 1.200000000000000e+00
"B" 0.000000000000000e+00
"M1.n1" 1.199999992234929e+00
"Vb:p" 5.569727913160437e-13
"Vd:p" -7.696410658466898e-05
"Vg:p" -1.519980992269843e-09
"Vs:p" 7.482303713848901e-21
"vds" 4.300000000000002e-01
"M1:ids" 7.821711911115219e-05
"D" 4.300000000000002e-01
"S" 0.000000000000000e+00
"G" 1.200000000000000e+00
"B" 0.000000000000000e+00
"M1.n1" 1.199999992312542e+00
"Vb:p" 5.671822695348794e-13
"Vd:p" -7.821650413605530e-05
"Vg:p" -1.504788585483410e-09
"Vs:p" 1.940891654664633e-20
"vds" 4.400000000000002e-01
"M1:ids" 7.944234669708383e-05
"D" 4.400000000000002e-01
"S" 0.000000000000000e+00
"G" 1.200000000000000e+00
"B" 0.000000000000000e+00
"M1.n1" 1.199999992388968e+00
"Vb:p" 5.773836327185419e-13
"Vd:p" -7.944174083291976e-05
"Vg:p" -1.489828483972887e-09
"Vs:p" 5.075208131319591e-21
"vds" 4.500000000000002e-01
"M1:ids" 8.064044261762272e-05
"D" 4.500000000000002e-01
"S" 0.000000000000000e+00
"G" 1.200000000000000e+00
"B" 0.000000000000000e+00
"M1.n1" 1.199999992464220e+00
"Vb:p" 5.875771514450404e-13
"Vd:p" -8.063984569919286e-05
"Vg:p" -1.475098166652930e-09
"Vs:p" 7.993704426219171e-22
"vds" 4.600000000000002e-01
"M1:ids" 8.181143884241819e-05
"D" 4.600000000000002e-01
"S" 0.000000000000000e+00
"G" 1.200000000000000e+00
"B" 0.000000000000000e+00
"M1.n1" 1.199999992538311e+00
"Vb:p" 5.977630908099064e-13
"Vd:p" -8.181085070685972e-05
"Vg:p" -1.460595200898117e-09
"Vs:p" 1.318432244714518e-20
"vds" 4.700000000000003e-01
"M1:ids" 8.295537027722649e-05
"D" 4.700000000000003e-01
"S" 0.000000000000000e+00
"G" 1.200000000000000e+00
"B" 0.000000000000000e+00
"M1.n1" 1.199999992611252e+00
"Vb:p" 6.079417102411425e-13
"Vd:p" -8.295479076394171e-05
"Vg:p" -1.446317248403157e-09
"Vs:p" 1.349659284531089e-20
"vds" 4.800000000000003e-01
"M1:ids" 8.407227477067007e-05
"D" 4.800000000000003e-01
"S" 0.000000000000000e+00
"G" 1.200000000000000e+00
"B" 0.000000000000000e+00
"M1.n1" 1.199999992683055e+00
"Vb:p" 6.181132633455125e-13
"Vd:p" -8.407170372125326e-05
"Vg:p" -1.432262071701597e-09
"Vs:p" 1.404789900665054e-20
"vds" 4.900000000000003e-01
"M1:ids" 8.516219314236268e-05
"D" 4.900000000000003e-01
"S" 0.000000000000000e+00
"G" 1.200000000000000e+00
"B" 0.000000000000000e+00
"M1.n1" 1.199999992753731e+00
"Vb:p" 6.282779977841167e-13
"Vd:p" -8.516163040052247e-05
"Vg:p" -1.418427541415930e-09
"Vs:p" 1.723379485282547e-20
"vds" 5.000000000000002e-01
"M1:ids" 8.622516923540330e-05
"D" 5.000000000000002e-01
"S" 0.000000000000000e+00
"G" 1.200000000000000e+00
"B" 0.000000000000000e+00
"M1.n1" 1.199999992823290e+00
"Vb:p" 6.384361551752213e-13
"Vd:p" -8.622461464688156e-05
"Vg:p" -1.404811644322548e-09
"Vs:p" -6.985649609347830e-21
"vds" 5.100000000000002e-01
"M1:ids" 8.726124999676094e-05
"D" 5.100000000000002e-01
"S" 0.000000000000000e+00
"G" 1.200000000000000e+00
"B" 0.000000000000000e+00
"M1.n1" 1.199999992891742e+00
"Vb:p" 6.485879710223589e-13
"Vd:p" -8.726070340924806e-05
"Vg:p" -1.391412492326432e-09
"Vs:p" -3.055330079583308e-21
"vds" 5.200000000000002e-01
"M1:ids" 8.827048558967834e-05
"D" 5.200000000000002e-01
"S" 0.000000000000000e+00
"G" 1.200000000000000e+00
"B" 0.000000000000000e+00
"M1.n1" 1.199999992959095e+00
"Vb:p" 6.587336746657908e-13
"Vd:p" -8.826994685272220e-05
"Vg:p" -1.378228332452835e-09
"Vs:p" 2.060909562542117e-20
"vds" 5.300000000000002e-01
"M1:ids" 8.925292954296286e-05
"D" 5.300000000000002e-01
"S" 0.000000000000000e+00
"G" 1.200000000000000e+00
"B" 0.000000000000000e+00
"M1.n1" 1.199999993025359e+00
"Vb:p" 6.688734892554458e-13
"Vd:p" -8.925239850787329e-05
"Vg:p" -1.365257557976292e-09
"Vs:p" 2.718639311535538e-20
"vds" 5.400000000000003e-01
"M1:ids" 9.020863894292357e-05
"D" 5.400000000000003e-01
"S" 0.000000000000000e+00
"G" 1.200000000000000e+00
"B" 0.000000000000000e+00
"M1.n1" 1.199999993090539e+00
"Vb:p" 6.790076317435308e-13
"Vd:p" -9.020811546267076e-05
"Vg:p" -1.352498720820656e-09
"Vs:p" 1.033882113996278e-20
"vds" 5.500000000000003e-01
"M1:ids" 9.113767467477341e-05
"D" 5.500000000000003e-01
"S" 0.000000000000000e+00
"G" 1.200000000000000e+00
"B" 0.000000000000000e+00
"M1.n1" 1.199999993154644e+00
"Vb:p" 6.891363128950996e-13
"Vd:p" -9.113715860387783e-05
"Vg:p" -1.339950545377702e-09
"Vs:p" 2.531377281166009e-20
"vds" 5.600000000000003e-01
"M1:ids" 9.204010172158243e-05
"D" 5.600000000000003e-01
"S" 0.000000000000000e+00
"G" 1.200000000000000e+00
"B" 0.000000000000000e+00
"M1.n1" 1.199999993217677e+00
"Vb:p" 6.992597373149155e-13
"Vd:p" -9.203959291600026e-05
"Vg:p" -1.327611943905093e-09
"Vs:p" 2.909084878011487e-21
"vds" 5.700000000000003e-01
"M1:ids" 9.291598953039622e-05
"D" 5.700000000000003e-01
"S" 0.000000000000000e+00
"G" 1.200000000000000e+00
"B" 0.000000000000000e+00
"M1.n1" 1.199999993279645e+00
"Vb:p" 7.093781034890254e-13
"Vd:p" -9.291548784739245e-05
"Vg:p" -1.315482033676323e-09
"Vs:p" 2.656246572724089e-20
"vds" 5.800000000000003e-01
"M1:ids" 9.376541245691044e-05
"D" 5.800000000000003e-01
"S" 0.000000000000000e+00
"G" 1.200000000000000e+00
"B" 0.000000000000000e+00
"M1.n1" 1.199999993340550e+00
"Vb:p" 7.194916038395598e-13
"Vd:p" -9.376491775492610e-05
"Vg:p" -1.303560156064472e-09
"Vs:p" 1.076233761358993e-20
"vds" 5.900000000000003e-01
"M1:ids" 9.458845030224113e-05
"D" 5.900000000000003e-01
"S" 0.000000000000000e+00
"G" 1.200000000000000e+00
"B" 0.000000000000000e+00
"M1.n1" 1.199999993400394e+00
"Vb:p" 7.296004247913330e-13
"Vd:p" -9.458796244074693e-05
"Vg:p" -1.291845897746308e-09
"Vs:p" -2.376225755416521e-21
"vds" 6.000000000000003e-01
"M1:ids" 9.538518895780255e-05
"D" 6.000000000000003e-01
"S" 0.000000000000000e+00
"G" 1.200000000000000e+00
"B" 0.000000000000000e+00
"M1.n1" 1.199999993459178e+00
"Vb:p" 7.397047468488873e-13
"Vd:p" -9.538470779714268e-05
"Vg:p" -1.280339114210178e-09
"Vs:p" 9.705040352665410e-21
"vds" 6.100000000000003e-01
"M1:ids" 9.615572117723402e-05
"D" 6.100000000000003e-01
"S" 0.000000000000000e+00
"G" 1.200000000000000e+00
"B" 0.000000000000000e+00
"M1.n1" 1.199999993516902e+00
"Vb:p" 7.498047446827595e-13
"Vd:p" -9.615524657845552e-05
"Vg:p" -1.269039955737094e-09
"Vs:p" 3.695279940722702e-21
"vds" 6.200000000000003e-01
"M1:ids" 9.690014749763971e-05
"D" 6.200000000000003e-01
"S" 0.000000000000000e+00
"G" 1.200000000000000e+00
"B" 0.000000000000000e+00
"M1.n1" 1.199999993573562e+00
"Vb:p" 7.599005872237297e-13
"Vd:p" -9.689967932230919e-05
"Vg:p" -1.257948895993467e-09
"Vs:p" 9.068592595244837e-21
"vds" 6.300000000000003e-01
"M1:ids" 9.761857733622848e-05
"D" 6.300000000000003e-01
"S" 0.000000000000000e+00
"G" 1.200000000000000e+00
"B" 0.000000000000000e+00
"M1.n1" 1.199999993629156e+00
"Vb:p" 7.699924377639669e-13
"Vd:p" -9.761811544623196e-05
"Vg:p" -1.247066763319347e-09
"Vs:p" 1.522452331848680e-20
"vds" 6.400000000000003e-01
"M1:ids" 9.831113029264211e-05
"D" 6.400000000000003e-01
"S" 0.000000000000000e+00
"G" 1.200000000000000e+00
"B" 0.000000000000000e+00
"M1.n1" 1.199999993683675e+00
"Vb:p" 7.800804540640407e-13
"Vd:p" -9.831067454996742e-05
"Vg:p" -1.236394774707485e-09
"Vs:p" 1.576048375079883e-20
"vds" 6.500000000000004e-01
"M1:ids" 9.897793769182126e-05
"D" 6.500000000000004e-01
"S" 0.000000000000000e+00
"G" 1.200000000000000e+00
"B" 0.000000000000000e+00
"M1.n1" 1.199999993737113e+00
"Vb:p" 7.901647884647770e-13
"Vd:p" -9.897748795832403e-05
"Vg:p" -1.225934572334336e-09
"Vs:p" 1.396720878740620e-20
"vds" 6.600000000000004e-01
"M1:ids" 9.961914440694492e-05
"D" 6.600000000000004e-01
"S" 0.000000000000000e+00
"G" 1.200000000000000e+00
"B" 0.000000000000000e+00
"M1.n1" 1.199999993789458e+00
"Vb:p" 8.002455880030897e-13
"Vd:p" -9.961870054409377e-05
"Vg:p" -1.215688262307662e-09
"Vs:p" 1.066029851228619e-20
"vds" 6.700000000000004e-01
"M1:ids" 1.002349110064655e-04
"D" 6.700000000000004e-01
"S" 0.000000000000000e+00
"G" 1.200000000000000e+00
"B" 0.000000000000000e+00
"M1.n1" 1.199999993840697e+00
"Vb:p" 8.103229945309182e-13
"Vd:p" -1.002344728750684e-04
"Vg:p" -1.205658455016784e-09
"Vs:p" 1.097510058665734e-20
"vds" 6.800000000000004e-01
"M1:ids" 1.008254162729716e-04
"D" 6.800000000000004e-01
"S" 0.000000000000000e+00
"G" 1.200000000000000e+00
"B" 0.000000000000000e+00
"M1.n1" 1.199999993890813e+00
"Vb:p" 8.203971448364736e-13
"Vd:p" -1.008249837328805e-04
"Vg:p" -1.195848306088077e-09
"Vs:p" 1.018880556313097e-20
"vds" 6.900000000000004e-01
"M1:ids" 1.013908601436673e-04
"D" 6.900000000000004e-01
"S" 0.000000000000000e+00
"G" 1.200000000000000e+00
"B" 0.000000000000000e+00
"M1.n1" 1.199999993939789e+00
"Vb:p" 8.304681707670788e-13
"Vd:p" -1.013904330534663e-04
"Vg:p" -1.186261556432915e-09
"Vs:p" 1.872058043742502e-20
"vds" 7.000000000000004e-01
"M1:ids" 1.019314671213715e-04
"D" 7.000000000000004e-01
"S" 0.000000000000000e+00
"G" 1.200000000000000e+00
"B" 0.000000000000000e+00
"M1.n1" 1.199999993987601e+00
"Vb:p" 8.405361993529218e-13
"Vd:p" -1.019310453380441e-04
"Vg:p" -1.176902569202651e-09
"Vs:p" 1.048328186119984e-20
"vds" 7.100000000000004e-01
"M1:ids" 1.024474901992231e-04
"D" 7.100000000000004e-01
"S" 0.000000000000000e+00
"G" 1.200000000000000e+00
"B" 0.000000000000000e+00
"M1.n1" 1.199999994034224e+00
"Vb:p" 8.506013529311072e-13
"Vd:p" -1.024470735778079e-04
"Vg:p" -1.167776360613167e-09
"Vs:p" 1.001770424767865e-20
"vds" 7.200000000000004e-01
"M1:ids" 1.029392153293008e-04
"D" 7.200000000000004e-01
"S" 0.000000000000000e+00
"G" 1.200000000000000e+00
"B" 0.000000000000000e+00
"M1.n1" 1.199999994079628e+00
"Vb:p" 8.606637492694835e-13
"Vd:p" -1.029388037225379e-04
"Vg:p" -1.158888620562979e-09
"Vs:p" 8.177602598786660e-21
"vds" 7.300000000000004e-01
"M1:ids" 1.034069664418941e-04
"D" 7.300000000000004e-01
"S" 0.000000000000000e+00
"G" 1.200000000000000e+00
"B" 0.000000000000000e+00
"M1.n1" 1.199999994123782e+00
"Vb:p" 8.707235016897554e-13
"Vd:p" -1.034065596998715e-04
"Vg:p" -1.150245717762741e-09
"Vs:p" 2.536009674424108e-20
"vds" 7.400000000000004e-01
"M1:ids" 1.038511109844953e-04
"D" 7.400000000000004e-01
"S" 0.000000000000000e+00
"G" 1.200000000000000e+00
"B" 0.000000000000000e+00
"M1.n1" 1.199999994166649e+00
"Vb:p" 8.807807191895588e-13
"Vd:p" -1.038507089543077e-04
"Vg:p" -1.141854682786890e-09
"Vs:p" 3.882880858411341e-21
"vds" 7.500000000000004e-01
"M1:ids" 1.042720658937781e-04
"D" 7.500000000000004e-01
"S" 0.000000000000000e+00
"G" 1.200000000000000e+00
"B" 0.000000000000000e+00
"M1.n1" 1.199999994208190e+00
"Vb:p" 8.908355065631910e-13
"Vd:p" -1.042716684192135e-04
"Vg:p" -1.133723161188645e-09
"Vs:p" 7.291623958846146e-21
"vds" 7.600000000000005e-01
"M1:ids" 1.046703038366221e-04
"D" 7.600000000000005e-01
"S" 0.000000000000000e+00
"G" 1.200000000000000e+00
"B" 0.000000000000000e+00
"M1.n1" 1.199999994248364e+00
"Vb:p" 9.008879645209474e-13
"Vd:p" -1.046699107578960e-04
"Vg:p" -1.125859327825221e-09
"Vs:p" 1.605732511396680e-20
"vds" 7.700000000000005e-01
"M1:ids" 1.050463594564684e-04
"D" 7.700000000000005e-01
"S" 0.000000000000000e+00
"G" 1.200000000000000e+00
"B" 0.000000000000000e+00
"M1.n1" 1.199999994287126e+00
"Vb:p" 9.109381898070664e-13
"Vd:p" -1.050459706100338e-04
"Vg:p" -1.118271753180260e-09
"Vs:p" 2.852972791886599e-21
"vds" 7.800000000000005e-01
"M1:ids" 1.054008352419717e-04
"D" 7.800000000000005e-01
"S" 0.000000000000000e+00
"G" 1.200000000000000e+00
"B" 0.000000000000000e+00
"M1.n1" 1.199999994324432e+00
"Vb:p" 9.209862753165757e-13
"Vd:p" -1.054004504604308e-04
"Vg:p" -1.110969213223379e-09
"Vs:p" 1.390638270574404e-20
"vds" 7.900000000000005e-01
"M1:ids" 1.057344065059068e-04
"D" 7.900000000000005e-01
"S" 0.000000000000000e+00
"G" 1.200000000000000e+00
"B" 0.000000000000000e+00
"M1.n1" 1.199999994360238e+00
"Vb:p" 9.310323102114431e-13
"Vd:p" -1.057340256180577e-04
"Vg:p" -1.103960436764713e-09
"Vs:p" 9.963417337392425e-21
"vds" 8.000000000000005e-01
"M1:ids" 1.060478248426801e-04
"D" 8.000000000000005e-01
"S" 0.000000000000000e+00
"G" 1.200000000000000e+00
"B" 0.000000000000000e+00
"M1.n1" 1.199999994394500e+00
"Vb:p" 9.410763800367118e-13
"Vd:p" -1.060474476737350e-04
"Vg:p" -1.097253788855430e-09
"Vs:p" 7.453538013359985e-21
"vds" 8.100000000000005e-01
"M1:ids" 1.063419193519054e-04
"D" 8.100000000000005e-01
"S" 0.000000000000000e+00
"G" 1.200000000000000e+00
"B" 0.000000000000000e+00
"M1.n1" 1.199999994427179e+00
"Vb:p" 9.511185668373450e-13
"Vd:p" -1.063415457239034e-04
"Vg:p" -1.090856895814636e-09
"Vs:p" 1.273361900725885e-20
"vds" 8.200000000000005e-01
"M1:ids" 1.066175949103264e-04
"D" 8.200000000000005e-01
"S" 0.000000000000000e+00
"G" 1.200000000000000e+00
"B" 0.000000000000000e+00
"M1.n1" 1.199999994458243e+00
"Vb:p" 9.611589492765881e-13
"Vd:p" -1.066172246427684e-04
"Vg:p" -1.084776226676517e-09
"Vs:p" -1.905183437064970e-21
"vds" 8.300000000000005e-01
"M1:ids" 1.068758268823334e-04
"D" 8.300000000000005e-01
"S" 0.000000000000000e+00
"G" 1.200000000000000e+00
"B" 0.000000000000000e+00
"M1.n1" 1.199999994487667e+00
"Vb:p" 9.711976027565523e-13
"Vd:p" -1.068754597930424e-04
"Vg:p" -1.079016656221504e-09
"Vs:p" -1.306118121459476e-20
"vds" 8.400000000000005e-01
"M1:ids" 1.071176519050471e-04
"D" 8.400000000000005e-01
"S" 0.000000000000000e+00
"G" 1.200000000000000e+00
"B" 0.000000000000000e+00
"M1.n1" 1.199999994515436e+00
"Vb:p" 9.812345995413533e-13
"Vd:p" -1.071172878112452e-04
"Vg:p" -1.073581044382807e-09
"Vs:p" 6.763686499920366e-22
"vds" 8.500000000000005e-01
"M1:ids" 1.073441547639941e-04
"D" 8.500000000000005e-01
"S" 0.000000000000000e+00
"G" 1.200000000000000e+00
"B" 0.000000000000000e+00
"M1.n1" 1.199999994541547e+00
"Vb:p" 9.912700088827562e-13
"Vd:p" -1.073437934835636e-04
"Vg:p" -1.068469873160176e-09
"Vs:p" 1.769835704380212e-20
"vds" 8.600000000000005e-01
"M1:ids" 1.075564518462734e-04
"D" 8.600000000000005e-01
"S" 0.000000000000000e+00
"G" 1.200000000000000e+00
"B" 0.000000000000000e+00
"M1.n1" 1.199999994566012e+00
"Vb:p" 1.001303897147589e-12
"Vd:p" -1.075560931991460e-04
"Vg:p" -1.063680982678037e-09
"Vs:p" 2.626860534392076e-21