HEADER
"PSFversion" "1.00"
"simulator" "spectre"
"version" "23.1.0.242.isr1"
"date" "2:57:56 PM, Fri Nov 29, 2024"
"design" "# Simulate DC sweeps of gate to source voltage"
"analysis type" "dc"
"analysis name" "vgs-001_vds"
"analysis description" "DC Analysis `vgs-001_vds': vds = (0 -> 1.2)"
"xVecSorted" "unsorted"
"tolerance.relative" 1.000000000000000e-03
"reltol" 1.000000000000000e-03
"abstol(V)" 1.000000000000000e-06
"abstol(I)" 1.000000000000000e-12
"temp" 2.700000000000000e+01
"tnom" 2.700000000000000e+01
"tempeffects" "all"
"gmindc" 1.000000000000000e-12
TYPE
"sweep" FLOAT DOUBLE PROP(
"key" "sweep"
)
"LogicV" FLOAT DOUBLE PROP(
"key" "node"
)
"Real" FLOAT DOUBLE PROP(
"units" ""
"key" "node"
"tolerance" 1.000000000000000e-06
)
"Tau" FLOAT DOUBLE PROP(
"units" "N*m"
"key" "node"
"tolerance" 1.000000000000000e-06
)
"Alpha" FLOAT DOUBLE PROP(
"units" "rads/s^2"
"key" "node"
"tolerance" 1.000000000000000e-06
)
"Omega" FLOAT DOUBLE PROP(
"units" "rads/s"
"key" "node"
"tolerance" 1.000000000000000e-06
)
"Theta" FLOAT DOUBLE PROP(
"units" "rads"
"key" "node"
"tolerance" 1.000000000000000e-06
)
"F" FLOAT DOUBLE PROP(
"units" "N"
"key" "node"
"tolerance" 1.000000000000000e-06
)
"Imp" FLOAT DOUBLE PROP(
"units" "m/s^3"
"key" "node"
"tolerance" 1.000000000000000e-06
)
"Acc" FLOAT DOUBLE PROP(
"units" "m/s^2"
"key" "node"
"tolerance" 1.000000000000000e-06
)
"Vel" FLOAT DOUBLE PROP(
"units" "m/s"
"key" "node"
"tolerance" 1.000000000000000e-06
)
"Pos" FLOAT DOUBLE PROP(
"units" "m"
"key" "node"
"tolerance" 1.000000000000000e-06
)
"Phi" FLOAT DOUBLE PROP(
"units" "Wb"
"key" "node"
"tolerance" 1.000000000000000e-09
)
"V" FLOAT DOUBLE PROP(
"units" "V"
"key" "node"
"tolerance" 1.000000000000000e-06
)
"I" FLOAT DOUBLE PROP(
"units" "A"
"key" "branch"
"tolerance" 1.000000000000000e-12
)
"MMF" FLOAT DOUBLE PROP(
"units" "A*turn"
"key" "node"
"tolerance" 1.000000000000000e-12
)
"Wb" FLOAT DOUBLE PROP(
"units" "Wb"
"key" "node"
"tolerance" 1.000000000000000e-09
)
"Temp" FLOAT DOUBLE PROP(
"units" "C"
"key" "node"
"tolerance" 1.000000000000000e-04
)
"Pwr" FLOAT DOUBLE PROP(
"units" "W"
"key" "node"
"tolerance" 1.000000000000000e-09
)
"U" FLOAT DOUBLE PROP(
"units" ""
"key" "node"
"tolerance" 1.000000000000000e-06
)
"V/Sec" FLOAT DOUBLE PROP(
"units" "V/s"
"key" "node"
"tolerance" 9.999999999999999e-05
)
"I/Sec" FLOAT DOUBLE PROP(
"units" "A/s"
"key" "node"
"tolerance" 1.000000000000000e-06
)
"1/Sec" FLOAT DOUBLE PROP(
"units" "1/s"
"key" "node"
"tolerance" 9.999999999999999e-05
)
"HOD" FLOAT DOUBLE PROP(
"units" ""
"key" "node"
"tolerance" 1.000000000000000e-02
)
"Q" FLOAT DOUBLE PROP(
"units" "coul"
"key" "node"
"tolerance" 1.000000000000000e-14
)
"A" FLOAT DOUBLE PROP(
"key" "inst"
)
SWEEP
"vds" "sweep" PROP(
"sweep_direction" 0
"plot" 0
"grid" 1
)
TRACE
"M1:ids" "A"
"D" "V"
"S" "V"
"G" "V"
"B" "V"
"M1.n1" "V"
"Vb:p" "I"
"Vd:p" "I"
"Vg:p" "I"
"Vs:p" "I"
VALUE
"vds" 0.000000000000000e+00
"M1:ids" 0.000000000000000e+00
"D" 0.000000000000000e+00
"S" 0.000000000000000e+00
"G" 2.000000000000000e-01
"B" 0.000000000000000e+00
"M1.n1" 1.999999999996323e-01
"Vb:p" 7.654360322822846e-19
"Vd:p" 3.598827599083324e-14
"Vg:p" -7.197714646522968e-14
"Vs:p" 1.709524690738786e-19
"vds" 1.000000000000000e-02
"M1:ids" 1.067603581104722e-09
"D" 1.000000000000000e-02
"S" 0.000000000000000e+00
"G" 2.000000000000000e-01
"B" 0.000000000000000e+00
"M1.n1" 1.999999999953982e-01
"Vb:p" 1.000123071793681e-14
"Vd:p" -1.067177570406799e-09
"Vg:p" -9.007787165625021e-13
"Vs:p" 8.585331003701316e-26
"vds" 2.000000000000000e-02
"M1:ids" 1.874919773733172e-09
"D" 2.000000000000000e-02
"S" 0.000000000000000e+00
"G" 2.000000000000000e-01
"B" 0.000000000000000e+00
"M1.n1" 1.999999999954732e-01
"Vb:p" 2.000171893849352e-14
"Vd:p" -1.874525668392568e-09
"Vg:p" -8.860969479540221e-13
"Vs:p" -9.509244895896165e-26
"vds" 3.000000000000000e-02
"M1:ids" 2.443731815696277e-09
"D" 3.000000000000000e-02
"S" 0.000000000000000e+00
"G" 2.000000000000000e-01
"B" 0.000000000000000e+00
"M1.n1" 1.999999999955381e-01
"Vb:p" 3.000205060747111e-14
"Vd:p" -2.443368140694534e-09
"Vg:p" -8.734002410619551e-13
"Vs:p" 6.286905870249378e-25
"vds" 4.000000000000000e-02
"M1:ids" 2.818695269864704e-09
"D" 4.000000000000000e-02
"S" 0.000000000000000e+00
"G" 2.000000000000000e-01
"B" 0.000000000000000e+00
"M1.n1" 1.999999999955929e-01
"Vb:p" 4.000227592482295e-14
"Vd:p" -2.818360562472429e-09
"Vg:p" -8.626820418981024e-13
"Vs:p" 4.477448280289624e-25
"vds" 5.000000000000000e-02
"M1:ids" 3.059271655862278e-09
"D" 5.000000000000000e-02
"S" 0.000000000000000e+00
"G" 2.000000000000000e-01
"B" 0.000000000000000e+00
"M1.n1" 1.999999999956382e-01
"Vb:p" 5.000242899333832e-14
"Vd:p" -3.058964550503968e-09
"Vg:p" -8.538065023031524e-13
"Vs:p" 2.991108117108386e-25
"vds" 6.000000000000000e-02
"M1:ids" 3.219771600038468e-09
"D" 6.000000000000000e-02
"S" 0.000000000000000e+00
"G" 2.000000000000000e-01
"B" 0.000000000000000e+00
"M1.n1" 1.999999999956757e-01
"Vb:p" 6.000253298037333e-14
"Vd:p" -3.219490934846107e-09
"Vg:p" -8.464749463352887e-13
"Vs:p" -1.532535857791034e-25
"vds" 7.000000000000001e-02
"M1:ids" 3.336741293175696e-09
"D" 7.000000000000001e-02
"S" 0.000000000000000e+00
"G" 2.000000000000000e-01
"B" 0.000000000000000e+00
"M1.n1" 1.999999999957070e-01
"Vb:p" 7.000260362441642e-14
"Vd:p" -3.336486138640701e-09
"Vg:p" -8.403435735821300e-13
"Vs:p" 4.154330853511081e-25
"vds" 8.000000000000000e-02
"M1:ids" 3.430503007254362e-09
"D" 8.000000000000000e-02
"S" 0.000000000000000e+00
"G" 2.000000000000000e-01
"B" 0.000000000000000e+00
"M1.n1" 1.999999999957336e-01
"Vb:p" 8.000265161723581e-14
"Vd:p" -3.430272622208411e-09
"Vg:p" -8.351338666893111e-13
"Vs:p" -3.858981330596421e-25
"vds" 9.000000000000000e-02
"M1:ids" 3.511497076440133e-09
"D" 9.000000000000000e-02
"S" 0.000000000000000e+00
"G" 2.000000000000000e-01
"B" 0.000000000000000e+00
"M1.n1" 1.999999999957565e-01
"Vb:p" 9.000268422216588e-14
"Vd:p" -3.511290850391950e-09
"Vg:p" -8.306537775881299e-13
"Vs:p" 2.595289269304505e-25
"vds" 9.999999999999999e-02
"M1:ids" 3.585054831157003e-09
"D" 9.999999999999999e-02
"S" 0.000000000000000e+00
"G" 2.000000000000000e-01
"B" 0.000000000000000e+00
"M1.n1" 1.999999999957763e-01
"Vb:p" 1.000027063734722e-13
"Vd:p" -3.584872240261808e-09
"Vg:p" -8.267774396163802e-13
"Vs:p" -3.483357321966384e-25
"vds" 1.100000000000000e-01
"M1:ids" 3.653979220911822e-09
"D" 1.100000000000000e-01
"S" 0.000000000000000e+00
"G" 2.000000000000000e-01
"B" 0.000000000000000e+00
"M1.n1" 1.999999999957934e-01
"Vb:p" 1.100027214231933e-13
"Vd:p" -3.653819799458442e-09
"Vg:p" -8.234218520508644e-13
"Vs:p" -4.298976389088899e-26
"vds" 1.200000000000000e-01
"M1:ids" 3.719805804246441e-09
"D" 1.200000000000000e-01
"S" 0.000000000000000e+00
"G" 2.000000000000000e-01
"B" 0.000000000000000e+00
"M1.n1" 1.999999999958082e-01
"Vb:p" 1.200027316484991e-13
"Vd:p" -3.719669127026186e-09
"Vg:p" -8.205304872585997e-13
"Vs:p" -1.968744383942041e-25
"vds" 1.300000000000000e-01
"M1:ids" 3.783411911590875e-09
"D" 1.300000000000000e-01
"S" 0.000000000000000e+00
"G" 2.000000000000000e-01
"B" 0.000000000000000e+00
"M1.n1" 1.999999999958208e-01
"Vb:p" 1.300027385963595e-13
"Vd:p" -3.783297582956181e-09
"Vg:p" -8.180631931489766e-13
"Vs:p" 4.366376664834862e-25
"vds" 1.400000000000000e-01
"M1:ids" 3.845318385889600e-09
"D" 1.400000000000000e-01
"S" 0.000000000000000e+00
"G" 2.000000000000000e-01
"B" 0.000000000000000e+00
"M1.n1" 1.999999999958314e-01
"Vb:p" 1.400027433176913e-13
"Vd:p" -3.845226032760401e-09
"Vg:p" -8.159902074239100e-13
"Vs:p" 8.557815535327133e-25
"vds" 1.500000000000000e-01
"M1:ids" 3.905844880990550e-09
"D" 1.500000000000000e-01
"S" 0.000000000000000e+00
"G" 2.000000000000000e-01
"B" 0.000000000000000e+00
"M1.n1" 1.999999999958401e-01
"Vb:p" 1.500027465264227e-13
"Vd:p" -3.905774148123065e-09
"Vg:p" -8.142886747701191e-13
"Vs:p" -7.958533682848556e-25
"vds" 1.600000000000000e-01
"M1:ids" 3.965193168299511e-09
"D" 1.600000000000000e-01
"S" 0.000000000000000e+00
"G" 2.000000000000000e-01
"B" 0.000000000000000e+00
"M1.n1" 1.999999999958470e-01
"Vb:p" 1.600027487075532e-13
"Vd:p" -3.965143714643505e-09
"Vg:p" -8.129408128599057e-13
"Vs:p" 1.206666884175190e-24
"vds" 1.700000000000000e-01
"M1:ids" 4.023493657073982e-09
"D" 1.700000000000000e-01
"S" 0.000000000000000e+00
"G" 2.000000000000000e-01
"B" 0.000000000000000e+00
"M1.n1" 1.999999999958521e-01
"Vb:p" 1.700027501905614e-13
"Vd:p" -4.023465151848408e-09
"Vg:p" -8.119337282289457e-13
"Vs:p" 2.757857724653010e-25
"vds" 1.800000000000000e-01
"M1:ids" 4.080832357841849e-09
"D" 1.800000000000000e-01
"S" 0.000000000000000e+00
"G" 2.000000000000000e-01
"B" 0.000000000000000e+00
"M1.n1" 1.999999999958555e-01
"Vb:p" 1.800027511992753e-13
"Vd:p" -4.080824473345359e-09
"Vg:p" -8.112623832147579e-13
"Vs:p" 5.428625205365432e-25
"vds" 1.900000000000000e-01
"M1:ids" 4.137267046092620e-09
"D" 1.900000000000000e-01
"S" 0.000000000000000e+00
"G" 2.000000000000000e-01
"B" 0.000000000000000e+00
"M1.n1" 1.999999999958574e-01
"Vb:p" 1.900027518857496e-13
"Vd:p" -4.137279468924478e-09
"Vg:p" -8.109109900273390e-13
"Vs:p" 1.038393386760558e-24
"vds" 2.000000000000000e-01
"M1:ids" 4.192837247396950e-09
"D" 2.000000000000000e-01
"S" 0.000000000000000e+00
"G" 2.000000000000000e-01
"B" 0.000000000000000e+00
"M1.n1" 1.999999999958587e-01
"Vb:p" 2.000027523532813e-13
"Vd:p" -4.192869893932098e-09
"Vg:p" -8.106486242224134e-13
"Vs:p" -8.703218377381026e-25
"vds" 2.100000000000000e-01
"M1:ids" 4.247570571026860e-09
"D" 2.100000000000000e-01
"S" 0.000000000000000e+00
"G" 2.000000000000000e-01
"B" 0.000000000000000e+00
"M1.n1" 1.999999999958610e-01
"Vb:p" 2.100027526720439e-13
"Vd:p" -4.247623635440589e-09
"Vg:p" -8.101965856345241e-13
"Vs:p" 1.011332302266322e-24
"vds" 2.200000000000001e-01
"M1:ids" 4.301486820628882e-09
"D" 2.200000000000001e-01
"S" 0.000000000000000e+00
"G" 2.000000000000000e-01
"B" 0.000000000000000e+00
"M1.n1" 1.999999999958647e-01
"Vb:p" 2.200027528897094e-13
"Vd:p" -4.301560572308355e-09
"Vg:p" -8.094789483298806e-13
"Vs:p" 1.070705129438027e-24
"vds" 2.300000000000001e-01
"M1:ids" 4.354600714603332e-09
"D" 2.300000000000001e-01
"S" 0.000000000000000e+00
"G" 2.000000000000000e-01
"B" 0.000000000000000e+00
"M1.n1" 1.999999999958698e-01
"Vb:p" 2.300027530386636e-13
"Vd:p" -4.354695444030829e-09
"Vg:p" -8.084740434385934e-13
"Vs:p" -2.089913418998910e-25
"vds" 2.400000000000001e-01
"M1:ids" 4.406923715364083e-09
"D" 2.400000000000001e-01
"S" 0.000000000000000e+00
"G" 2.000000000000000e-01
"B" 0.000000000000000e+00
"M1.n1" 1.999999999958764e-01
"Vb:p" 2.400027531409761e-13
"Vd:p" -4.407039725345269e-09
"Vg:p" -8.071690818713813e-13
"Vs:p" -3.117578297928469e-26
"vds" 2.500000000000001e-01
"M1:ids" 4.458465274573346e-09
"D" 2.500000000000001e-01
"S" 0.000000000000000e+00
"G" 2.000000000000000e-01
"B" 0.000000000000000e+00
"M1.n1" 1.999999999958847e-01
"Vb:p" 2.500027532117875e-13
"Vd:p" -4.458602878204187e-09
"Vg:p" -8.055533910077422e-13
"Vs:p" 6.841001768578318e-27
"vds" 2.600000000000001e-01
"M1:ids" 4.509233687829181e-09
"D" 2.600000000000001e-01
"S" 0.000000000000000e+00
"G" 2.000000000000000e-01
"B" 0.000000000000000e+00
"M1.n1" 1.999999999958946e-01
"Vb:p" 2.600027532620304e-13
"Vd:p" -4.509393207904822e-09
"Vg:p" -8.036169563320862e-13
"Vs:p" 1.167842305858719e-24
"vds" 2.700000000000001e-01
"M1:ids" 4.559236683416944e-09
"D" 2.700000000000001e-01
"S" 0.000000000000000e+00
"G" 2.000000000000000e-01
"B" 0.000000000000000e+00
"M1.n1" 1.999999999959062e-01
"Vb:p" 2.700027533011986e-13
"Vd:p" -4.559418452273535e-09
"Vg:p" -8.013499732068890e-13
"Vs:p" 3.405102320153411e-25
"vds" 2.800000000000001e-01
"M1:ids" 4.608481827027846e-09
"D" 2.800000000000001e-01
"S" 0.000000000000000e+00
"G" 2.000000000000000e-01
"B" 0.000000000000000e+00
"M1.n1" 1.999999999959195e-01
"Vb:p" 2.800027533417124e-13
"Vd:p" -4.608686186554765e-09
"Vg:p" -7.987426670459957e-13
"Vs:p" 6.646878878608416e-25
"vds" 2.900000000000001e-01
"M1:ids" 4.656976797312247e-09
"D" 2.900000000000001e-01
"S" 0.000000000000000e+00
"G" 2.000000000000000e-01
"B" 0.000000000000000e+00
"M1.n1" 1.999999999959346e-01
"Vb:p" 2.900027534076415e-13
"Vd:p" -4.657204099045096e-09
"Vg:p" -7.957852044649664e-13
"Vs:p" 9.130844096864768e-25
"vds" 3.000000000000001e-01
"M1:ids" 4.704729569677156e-09
"D" 3.000000000000001e-01
"S" 0.000000000000000e+00
"G" 2.000000000000000e-01
"B" 0.000000000000000e+00
"M1.n1" 1.999999999959516e-01
"Vb:p" 3.000027535528641e-13
"Vd:p" -4.704980174936054e-09
"Vg:p" -7.924676415580058e-13
"Vs:p" -4.247731984600681e-25
"vds" 3.100000000000001e-01
"M1:ids" 4.751748534258096e-09
"D" 3.100000000000001e-01
"S" 0.000000000000000e+00
"G" 2.000000000000000e-01
"B" 0.000000000000000e+00
"M1.n1" 1.999999999959704e-01
"Vb:p" 3.100027538974401e-13
"Vd:p" -4.752022814315715e-09
"Vg:p" -7.887798897309821e-13
"Vs:p" 7.854530261503871e-25
"vds" 3.200000000000001e-01
"M1:ids" 4.798042566317891e-09
"D" 3.200000000000001e-01
"S" 0.000000000000000e+00
"G" 2.000000000000000e-01
"B" 0.000000000000000e+00
"M1.n1" 1.999999999959912e-01
"Vb:p" 3.200027546963866e-13
"Vd:p" -4.798340902587459e-09
"Vg:p" -7.847116908768231e-13
"Vs:p" 3.629265035084584e-25
"vds" 3.300000000000001e-01
"M1:ids" 4.843621062106856e-09
"D" 3.300000000000001e-01
"S" 0.000000000000000e+00
"G" 2.000000000000000e-01
"B" 0.000000000000000e+00
"M1.n1" 1.999999999960139e-01
"Vb:p" 3.300027564623793e-13
"Vd:p" -4.843943846347522e-09
"Vg:p" -7.802525980089259e-13
"Vs:p" 5.093895745221986e-25
"vds" 3.400000000000001e-01
"M1:ids" 4.888493949613989e-09
"D" 3.400000000000001e-01
"S" 0.000000000000000e+00
"G" 2.000000000000000e-01
"B" 0.000000000000000e+00
"M1.n1" 1.999999999960388e-01
"Vb:p" 3.400027601731859e-13
"Vd:p" -4.888841584149484e-09
"Vg:p" -7.753919593201125e-13
"Vs:p" -3.541669956479878e-26
"vds" 3.500000000000001e-01
"M1:ids" 4.932671681119760e-09
"D" 3.500000000000001e-01
"S" 0.000000000000000e+00
"G" 2.000000000000000e-01
"B" 0.000000000000000e+00
"M1.n1" 1.999999999960657e-01
"Vb:p" 3.500027676056154e-13
"Vd:p" -4.933044579068851e-09
"Vg:p" -7.701189045099556e-13
"Vs:p" 2.567521353411731e-25
"vds" 3.600000000000002e-01
"M1:ids" 4.976165212664357e-09
"D" 3.600000000000002e-01
"S" 0.000000000000000e+00
"G" 2.000000000000000e-01
"B" 0.000000000000000e+00
"M1.n1" 1.999999999960948e-01
"Vb:p" 3.600027818499758e-13
"Vd:p" -4.976563798182145e-09
"Vg:p" -7.644223326726659e-13
"Vs:p" -5.818385605060475e-25
"vds" 3.700000000000002e-01
"M1:ids" 5.018985974255840e-09
"D" 3.700000000000002e-01
"S" 0.000000000000000e+00
"G" 2.000000000000000e-01
"B" 0.000000000000000e+00
"M1.n1" 1.999999999961262e-01
"Vb:p" 3.700028080717218e-13
"Vd:p" -5.019410682785594e-09
"Vg:p" -7.582909012870043e-13
"Vs:p" -1.205379441649952e-25
"vds" 3.800000000000002e-01
"M1:ids" 5.061145833703928e-09
"D" 3.800000000000002e-01
"S" 0.000000000000000e+00
"G" 2.000000000000000e-01
"B" 0.000000000000000e+00
"M1.n1" 1.999999999961597e-01
"Vb:p" 3.800028545992906e-13
"Vd:p" -5.061597112239211e-09
"Vg:p" -7.517130159963171e-13
"Vs:p" 6.663539617198133e-25
"vds" 3.900000000000002e-01
"M1:ids" 5.102657056265530e-09
"D" 3.900000000000002e-01
"S" 0.000000000000000e+00
"G" 2.000000000000000e-01
"B" 0.000000000000000e+00
"M1.n1" 1.999999999961957e-01
"Vb:p" 3.900029344280928e-13
"Vd:p" -5.103135363622270e-09
"Vg:p" -7.446768209585971e-13
"Vs:p" -9.383784436002061e-25
"vds" 4.000000000000002e-01
"M1:ids" 5.143532261771986e-09
"D" 4.000000000000002e-01
"S" 0.000000000000000e+00
"G" 2.000000000000000e-01
"B" 0.000000000000000e+00
"M1.n1" 1.999999999962341e-01
"Vb:p" 4.000030672393341e-13
"Vd:p" -5.144038068871149e-09
"Vg:p" -7.371701896057317e-13
"Vs:p" -3.173114141560621e-26
"vds" 4.100000000000002e-01
"M1:ids" 5.183784380512880e-09
"D" 4.100000000000002e-01
"S" 0.000000000000000e+00
"G" 2.000000000000000e-01
"B" 0.000000000000000e+00
"M1.n1" 1.999999999962749e-01
"Vb:p" 4.100032820379731e-13
"Vd:p" -5.184318170673649e-09
"Vg:p" -7.291807156918820e-13
"Vs:p" -2.365068081197257e-25
"vds" 4.200000000000002e-01
"M1:ids" 5.223426608851624e-09
"D" 4.200000000000002e-01
"S" 0.000000000000000e+00
"G" 2.000000000000000e-01
"B" 0.000000000000000e+00
"M1.n1" 1.999999999963182e-01
"Vb:p" 4.200036205160717e-13
"Vd:p" -5.223988878097067e-09
"Vg:p" -7.206957045387550e-13
"Vs:p" 2.582415022931881e-26
"vds" 4.300000000000002e-01
"M1:ids" 5.262472365317741e-09
"D" 4.300000000000002e-01
"S" 0.000000000000000e+00
"G" 2.000000000000000e-01
"B" 0.000000000000000e+00
"M1.n1" 1.999999999963642e-01
"Vb:p" 4.300041412456648e-13
"Vd:p" -5.263063622691324e-09
"Vg:p" -7.117021644062191e-13
"Vs:p" 3.845349835681889e-25
"vds" 4.400000000000002e-01
"M1:ids" 5.300935247737007e-09
"D" 4.400000000000002e-01
"S" 0.000000000000000e+00
"G" 2.000000000000000e-01
"B" 0.000000000000000e+00
"M1.n1" 1.999999999964128e-01
"Vb:p" 4.400049247989906e-13
"Vd:p" -5.301556015634048e-09
"Vg:p" -7.021867979310119e-13
"Vs:p" 2.596299007623432e-25
"vds" 4.500000000000002e-01
"M1:ids" 5.338828991822951e-09
"D" 4.500000000000002e-01
"S" 0.000000000000000e+00
"G" 2.000000000000000e-01
"B" 0.000000000000000e+00
"M1.n1" 1.999999999964641e-01
"Vb:p" 4.500060798835822e-13
"Vd:p" -5.339479806334907e-09
"Vg:p" -6.921359935879418e-13
"Vs:p" -4.650114234367513e-25
"vds" 4.600000000000002e-01
"M1:ids" 5.376167431537930e-09
"D" 4.600000000000002e-01
"S" 0.000000000000000e+00
"G" 2.000000000000000e-01
"B" 0.000000000000000e+00
"M1.n1" 1.999999999965183e-01
"Vb:p" 4.600077505657254e-13
"Vd:p" -5.376848842813250e-09
"Vg:p" -6.815358171357832e-13
"Vs:p" -1.220752815063909e-24
"vds" 4.700000000000003e-01
"M1:ids" 5.412964461445859e-09
"D" 4.700000000000003e-01
"S" 0.000000000000000e+00
"G" 2.000000000000000e-01
"B" 0.000000000000000e+00
"M1.n1" 1.999999999965753e-01
"Vb:p" 4.700101246386808e-13
"Vd:p" -5.413677034066902e-09
"Vg:p" -6.703720030170183e-13
"Vs:p" 5.320076959629614e-25
"vds" 4.800000000000003e-01
"M1:ids" 5.449234001205195e-09
"D" 4.800000000000003e-01
"S" 0.000000000000000e+00
"G" 2.000000000000000e-01
"B" 0.000000000000000e+00
"M1.n1" 1.999999999966353e-01
"Vb:p" 4.800134431725363e-13
"Vd:p" -5.449978314583345e-09
"Vg:p" -6.586299456850525e-13
"Vs:p" -5.763105285708178e-26
"vds" 4.900000000000003e-01
"M1:ids" 5.484989962295979e-09
"D" 4.900000000000003e-01
"S" 0.000000000000000e+00
"G" 2.000000000000000e-01
"B" 0.000000000000000e+00
"M1.n1" 1.999999999966983e-01
"Vb:p" 4.900180112613771e-13
"Vd:p" -5.485766611086087e-09
"Vg:p" -6.462946908369029e-13
"Vs:p" -3.507589396042259e-25
"vds" 5.000000000000002e-01
"M1:ids" 5.520246217029564e-09
"D" 5.000000000000002e-01
"S" 0.000000000000000e+00
"G" 2.000000000000000e-01
"B" 0.000000000000000e+00
"M1.n1" 1.999999999967644e-01
"Vb:p" 5.000242099614239e-13
"Vd:p" -5.521055811565042e-09
"Vg:p" -6.333509265319600e-13
"Vs:p" 8.822617307466082e-26
"vds" 5.100000000000002e-01
"M1:ids" 5.555016569850963e-09
"D" 5.100000000000002e-01
"S" 0.000000000000000e+00
"G" 2.000000000000000e-01
"B" 0.000000000000000e+00
"M1.n1" 1.999999999968337e-01
"Vb:p" 5.100325093916847e-13
"Vd:p" -5.555859736600436e-09
"Vg:p" -6.197829741801887e-13
"Vs:p" -4.992927971604801e-25
"vds" 5.200000000000002e-01
"M1:ids" 5.589314730917851e-09
"D" 5.200000000000002e-01
"S" 0.000000000000000e+00
"G" 2.000000000000000e-01
"B" 0.000000000000000e+00
"M1.n1" 1.999999999969063e-01
"Vb:p" 5.200434829471947e-13
"Vd:p" -5.590192112965891e-09
"Vg:p" -6.055747793849433e-13
"Vs:p" 6.260122939671775e-25
"vds" 5.300000000000002e-01
"M1:ids" 5.623154291915755e-09
"D" 5.300000000000002e-01
"S" 0.000000000000000e+00
"G" 2.000000000000000e-01
"B" 0.000000000000000e+00
"M1.n1" 1.999999999969823e-01
"Vb:p" 5.300578225547426e-13
"Vd:p" -5.624066549467368e-09
"Vg:p" -5.907099026269261e-13
"Vs:p" 6.185420381994189e-25
"vds" 5.400000000000003e-01
"M1:ids" 5.656548704052091e-09
"D" 5.400000000000003e-01
"S" 0.000000000000000e+00
"G" 2.000000000000000e-01
"B" 0.000000000000000e+00
"M1.n1" 1.999999999970617e-01
"Vb:p" 5.400763548826147e-13
"Vd:p" -5.657496514963008e-09
"Vg:p" -5.751715097774502e-13
"Vs:p" 3.591195896443006e-25
"vds" 5.500000000000003e-01
"M1:ids" 5.689511258156704e-09
"D" 5.500000000000003e-01
"S" 0.000000000000000e+00
"G" 2.000000000000000e-01
"B" 0.000000000000000e+00
"M1.n1" 1.999999999971446e-01
"Vb:p" 5.501000583997484e-13
"Vd:p" -5.690495318489830e-09
"Vg:p" -5.589423624296657e-13
"Vs:p" 4.620540513215081e-25
"vds" 5.600000000000003e-01
"M1:ids" 5.722055066806692e-09
"D" 5.600000000000003e-01
"S" 0.000000000000000e+00
"G" 2.000000000000000e-01
"B" 0.000000000000000e+00
"M1.n1" 1.999999999972311e-01
"Vb:p" 5.601300811660859e-13
"Vd:p" -5.723076091417521e-09
"Vg:p" -5.420048080376346e-13
"Vs:p" 1.214421515746647e-24
"vds" 5.700000000000003e-01
"M1:ids" 5.754193048387914e-09
"D" 5.700000000000003e-01
"S" 0.000000000000000e+00
"G" 2.000000000000000e-01
"B" 0.000000000000000e+00
"M1.n1" 1.999999999973213e-01
"Vb:p" 5.701677592250240e-13
"Vd:p" -5.755251771537158e-09
"Vg:p" -5.243407698533644e-13
"Vs:p" 3.498056695580245e-25
"vds" 5.800000000000003e-01
"M1:ids" 5.785937912997282e-09
"D" 5.800000000000003e-01
"S" 0.000000000000000e+00
"G" 2.000000000000000e-01
"B" 0.000000000000000e+00
"M1.n1" 1.999999999974154e-01
"Vb:p" 5.802146354607629e-13
"Vd:p" -5.787035088991774e-09
"Vg:p" -5.059317366527812e-13
"Vs:p" 5.979778479010339e-25
"vds" 5.900000000000003e-01
"M1:ids" 5.817302150084872e-09
"D" 5.900000000000003e-01
"S" 0.000000000000000e+00
"G" 2.000000000000000e-01
"B" 0.000000000000000e+00
"M1.n1" 1.999999999975133e-01
"Vb:p" 5.902724787780383e-13
"Vd:p" -5.818438553950601e-09
"Vg:p" -4.867587522416699e-13
"Vs:p" 4.497057866116133e-25
"vds" 6.000000000000003e-01
"M1:ids" 5.848298017742546e-09
"D" 6.000000000000003e-01
"S" 0.000000000000000e+00
"G" 2.000000000000000e-01
"B" 0.000000000000000e+00
"M1.n1" 1.999999999976153e-01
"Vb:p" 6.003433034590947e-13
"Vd:p" -5.849474445925278e-09
"Vg:p" -4.668024047331639e-13
"Vs:p" 1.291149396811557e-24
"vds" 6.100000000000003e-01
"M1:ids" 5.878937533532668e-09
"D" 6.100000000000003e-01
"S" 0.000000000000000e+00
"G" 2.000000000000000e-01
"B" 0.000000000000000e+00
"M1.n1" 1.999999999977213e-01
"Vb:p" 6.104293885526526e-13
"Vd:p" -5.880154804629982e-09
"Vg:p" -4.460428155883881e-13
"Vs:p" 1.430846804314815e-24
"vds" 6.200000000000003e-01
"M1:ids" 5.909232466759732e-09
"D" 6.200000000000003e-01
"S" 0.000000000000000e+00
"G" 2.000000000000000e-01
"B" 0.000000000000000e+00
"M1.n1" 1.999999999978316e-01
"Vb:p" 6.205332971518365e-13
"Vd:p" -5.910491422283853e-09
"Vg:p" -4.244596284121813e-13
"Vs:p" 8.619317638023436e-25
"vds" 6.300000000000003e-01
"M1:ids" 5.939194332088612e-09
"D" 6.300000000000003e-01
"S" 0.000000000000000e+00
"G" 2.000000000000000e-01
"B" 0.000000000000000e+00
"M1.n1" 1.999999999979462e-01
"Vb:p" 6.306578954223268e-13
"Vd:p" -5.940495837258643e-09
"Vg:p" -4.020319974958783e-13
"Vs:p" 3.909088513010552e-25
"vds" 6.400000000000003e-01
"M1:ids" 5.968834384410124e-09
"D" 6.400000000000003e-01
"S" 0.000000000000000e+00
"G" 2.000000000000000e-01
"B" 0.000000000000000e+00
"M1.n1" 1.999999999980652e-01
"Vb:p" 6.408063712480817e-13
"Vd:p" -5.970179328974917e-09
"Vg:p" -3.787385760990892e-13
"Vs:p" 1.048416974272335e-24
"vds" 6.500000000000004e-01
"M1:ids" 5.998163614862469e-09
"D" 6.500000000000004e-01
"S" 0.000000000000000e+00
"G" 2.000000000000000e-01
"B" 0.000000000000000e+00
"M1.n1" 1.999999999981887e-01
"Vb:p" 6.509822523696053e-13
"Vd:p" -5.999552913954565e-09
"Vg:p" -3.545575044626748e-13
"Vs:p" 1.307173948158881e-24
"vds" 6.600000000000004e-01
"M1:ids" 6.027192747920241e-09
"D" 6.600000000000004e-01
"S" 0.000000000000000e+00
"G" 2.000000000000000e-01
"B" 0.000000000000000e+00
"M1.n1" 1.999999999983169e-01
"Vb:p" 6.611894238985959e-13
"Vd:p" -6.028627342938456e-09
"Vg:p" -3.294663975448823e-13
"Vs:p" 1.141893836097404e-24
"vds" 6.700000000000004e-01
"M1:ids" 6.055932239461940e-09
"D" 6.700000000000004e-01
"S" 0.000000000000000e+00
"G" 2.000000000000000e-01
"B" 0.000000000000000e+00
"M1.n1" 1.999999999984498e-01
"Vb:p" 6.714321451026478e-13
"Vd:p" -6.057413098983556e-09
"Vg:p" -3.034423324726981e-13
"Vs:p" 1.993436573916587e-25
"vds" 6.800000000000004e-01
"M1:ids" 6.084392275735223e-09
"D" 6.800000000000004e-01
"S" 0.000000000000000e+00
"G" 2.000000000000000e-01
"B" 0.000000000000000e+00
"M1.n1" 1.999999999985877e-01
"Vb:p" 6.817150653642228e-13
"Vd:p" -6.085920396456899e-09
"Vg:p" -2.764618357004437e-13
"Vs:p" 1.444950269155873e-25
"vds" 6.900000000000004e-01
"M1:ids" 6.112582773139365e-09
"D" 6.900000000000004e-01
"S" 0.000000000000000e+00
"G" 2.000000000000000e-01
"B" 0.000000000000000e+00
"M1.n1" 1.999999999987305e-01
"Vb:p" 6.920432392291189e-13
"Vd:p" -6.114159180847022e-09
"Vg:p" -2.485008698674595e-13
"Vs:p" -6.817347700375281e-25
"vds" 7.000000000000004e-01
"M1:ids" 6.140513378754408e-09
"D" 7.000000000000004e-01
"S" 0.000000000000000e+00
"G" 2.000000000000000e-01
"B" 0.000000000000000e+00
"M1.n1" 1.999999999988785e-01
"Vb:p" 7.024221404709200e-13
"Vd:p" -6.142139129318783e-09
"Vg:p" -2.195348203467001e-13
"Vs:p" 5.003195796610607e-25
"vds" 7.100000000000004e-01
"M1:ids" 6.168193471539409e-09
"D" 7.100000000000004e-01
"S" 0.000000000000000e+00
"G" 2.000000000000000e-01
"B" 0.000000000000000e+00
"M1.n1" 1.999999999990317e-01
"Vb:p" 7.128576751092051e-13
"Vd:p" -6.169869651940484e-09
"Vg:p" -1.895384814759736e-13
"Vs:p" 1.124516889203402e-24
"vds" 7.200000000000004e-01
"M1:ids" 6.195632164141508e-09
"D" 7.200000000000004e-01
"S" 0.000000000000000e+00
"G" 2.000000000000000e-01
"B" 0.000000000000000e+00
"M1.n1" 1.999999999991904e-01
"Vb:p" 7.233561933304701e-13
"Vd:p" -6.197359893517884e-09
"Vg:p" -1.584860424633646e-13
"Vs:p" 3.233623014018833e-25
"vds" 7.300000000000004e-01
"M1:ids" 6.222838305246124e-09
"D" 7.300000000000004e-01
"S" 0.000000000000000e+00
"G" 2.000000000000000e-01
"B" 0.000000000000000e+00
"M1.n1" 1.999999999993545e-01
"Vb:p" 7.339245002716055e-13
"Vd:p" -6.224618735969044e-09
"Vg:p" -1.263510729582814e-13
"Vs:p" 1.949753451551795e-24
"vds" 7.400000000000004e-01
"M1:ids" 6.249820482414119e-09
"D" 7.400000000000004e-01
"S" 0.000000000000000e+00
"G" 2.000000000000000e-01
"B" 0.000000000000000e+00
"M1.n1" 1.999999999995244e-01
"Vb:p" 7.445698656362623e-13
"Vd:p" -6.251654801187237e-09
"Vg:p" -9.310650827940706e-14
"Vs:p" 1.846797859790218e-24
"vds" 7.500000000000004e-01
"M1:ids" 6.276587025349226e-09
"D" 7.500000000000004e-01
"S" 0.000000000000000e+00
"G" 2.000000000000000e-01
"B" 0.000000000000000e+00
"M1.n1" 1.999999999997000e-01
"Vb:p" 7.553000321244155e-13
"Vd:p" -6.278476454330805e-09
"Vg:p" -5.872463429069853e-14
"Vs:p" 4.865868663223462e-25
"vds" 7.600000000000005e-01
"M1:ids" 6.303146009545426e-09
"D" 7.600000000000005e-01
"S" 0.000000000000000e+00
"G" 2.000000000000000e-01
"B" 0.000000000000000e+00
"M1.n1" 1.999999999998816e-01
"Vb:p" 7.661232226648465e-13
"Vd:p" -6.305091807493836e-09
"Vg:p" -2.317707191635564e-14
"Vs:p" -1.184423147429375e-24
"vds" 7.700000000000005e-01
"M1:ids" 6.329505260266157e-09
"D" 7.700000000000005e-01
"S" 0.000000000000000e+00
"G" 2.000000000000000e-01
"B" 0.000000000000000e+00
"M1.n1" 2.000000000000693e-01
"Vb:p" 7.770481464489973e-13
"Vd:p" -6.331508723706828e-09
"Vg:p" 1.356523871453834e-14
"Vs:p" -7.661494947175876e-25
"vds" 7.800000000000005e-01
"M1:ids" 6.355672356812002e-09
"D" 7.800000000000005e-01
"S" 0.000000000000000e+00
"G" 2.000000000000000e-01
"B" 0.000000000000000e+00
"M1.n1" 2.000000000002633e-01
"Vb:p" 7.880840037727395e-13
"Vd:p" -6.357734821226141e-09
"Vg:p" 5.153205450300570e-14
"Vs:p" -7.903334827299242e-25
"vds" 7.900000000000005e-01
"M1:ids" 6.381654637036661e-09
"D" 7.900000000000005e-01
"S" 0.000000000000000e+00
"G" 2.000000000000000e-01
"B" 0.000000000000000e+00
"M1.n1" 2.000000000004636e-01
"Vb:p" 7.992404896999330e-13
"Vd:p" -6.383777478068954e-09
"Vg:p" 9.075384600454908e-14
"Vs:p" 1.646449538304896e-24
"vds" 8.000000000000005e-01
"M1:ids" 6.407459202071026e-09
"D" 8.000000000000005e-01
"S" 0.000000000000000e+00
"G" 2.000000000000000e-01
"B" 0.000000000000000e+00
"M1.n1" 2.000000000006706e-01
"Vb:p" 8.105277965682940e-13
"Vd:p" -6.409643836758303e-09
"Vg:p" 1.312618144528063e-13
"Vs:p" 5.607517450857236e-25
"vds" 8.100000000000005e-01
"M1:ids" 6.433092921225194e-09
"D" 8.100000000000005e-01
"S" 0.000000000000000e+00
"G" 2.000000000000000e-01
"B" 0.000000000000000e+00
"M1.n1" 2.000000000008842e-01
"Vb:p" 8.219566153639942e-13
"Vd:p" -6.435340809243358e-09
"Vg:p" 1.730879091923753e-13
"Vs:p" -3.889945292819992e-27
"vds" 8.200000000000005e-01
"M1:ids" 6.458562437032819e-09
"D" 8.200000000000005e-01
"S" 0.000000000000000e+00
"G" 2.000000000000000e-01
"B" 0.000000000000000e+00
"M1.n1" 2.000000000011048e-01
"Vb:p" 8.335381359966114e-13
"Vd:p" -6.460875081961480e-09
"Vg:p" 2.162648455313146e-13
"Vs:p" 5.740160381866785e-25
"vds" 8.300000000000005e-01
"M1:ids" 6.483874170410639e-09
"D" 8.300000000000005e-01
"S" 0.000000000000000e+00
"G" 2.000000000000000e-01
"B" 0.000000000000000e+00
"M1.n1" 2.000000000013325e-01
"Vb:p" 8.452840465105537e-13
"Vd:p" -6.486253121015410e-09
"Vg:p" 2.608261230238218e-13
"Vs:p" 6.541426917626142e-25
"vds" 8.400000000000005e-01
"M1:ids" 6.509034325905766e-09
"D" 8.400000000000005e-01
"S" 0.000000000000000e+00
"G" 2.000000000000000e-01
"B" 0.000000000000000e+00
"M1.n1" 2.000000000015674e-01
"Vb:p" 8.572065312729498e-13
"Vd:p" -6.511481177438444e-09
"Vg:p" 3.068060441937905e-13
"Vs:p" 1.153029215687726e-24
"vds" 8.500000000000005e-01
"M1:ids" 6.534048897009235e-09
"D" 8.500000000000005e-01
"S" 0.000000000000000e+00
"G" 2.000000000000000e-01
"B" 0.000000000000000e+00
"M1.n1" 2.000000000018097e-01
"Vb:p" 8.693182681812188e-13
"Vd:p" -6.536565292522409e-09
"Vg:p" 3.542397337104349e-13
"Vs:p" 1.116392654411876e-25
"vds" 8.600000000000005e-01
"M1:ids" 6.558923671508788e-09
"D" 8.600000000000005e-01
"S" 0.000000000000000e+00
"G" 2.000000000000000e-01
"B" 0.000000000000000e+00
"M1.n1" 2.000000000020596e-01
"Vb:p" 8.816324249362831e-13
"Vd:p" -6.561511303188463e-09
"Vg:p" 4.031631580272481e-13
"Vs:p" -3.815974248522108e-25