HEADER
"PSFversion" "1.00"
"simulator" "spectre"
"version" "23.1.0.242.isr1"
"date" "5:46:18 PM, Tue Apr 15, 2025"
"design" "#RC Low-Pass Filter"
"analysis type" "info"
"analysis name" "myinfo_Models"
"analysis description" "Circuit Information"
"xVecSorted" "unknown"
"tolerance.relative" 1.000000000000000e-03
END
