HEADER
"PSFversion" "1.00"
"simulator" "spectre"
"version" "23.1.0.242.isr1"
"date" "5:46:18 PM, Tue Apr 15, 2025"
"design" "#RC Low-Pass Filter"
"analysis type" "info"
"analysis name" "myinfo_Oppoint"
"analysis description" "Circuit Information"
"xVecSorted" "unknown"
"tolerance.relative" 1.000000000000000e-03
"AnalysisName" "info"
"AnalysisType" "myinfo_Oppoint"
"OpPointTemp.Value" 2.700000000000000e+01
"OpPointTemp.Units" "C"
TYPE
"capacitor" STRUCT(
"trise" FLOAT DOUBLE PROP(
"units" "C"
"description" "Temperature rise from ambient"
)
"cap" FLOAT DOUBLE PROP(
"units" "F"
"description" "Capacitance at operating point"
)
) PROP(
"key" "inst"
)
"resistor" STRUCT(
"trise" FLOAT DOUBLE PROP(
"units" "C"
"description" "Temperature rise from ambient"
)
"v" FLOAT DOUBLE PROP(
"units" "V"
"description" "Voltage at operating point"
)
"i" FLOAT DOUBLE PROP(
"units" "A"
"description" "Current through the resistor"
)
"res" FLOAT DOUBLE PROP(
"units" "Ohm"
"description" "Resistance at operating point"
)
"pwr" FLOAT DOUBLE PROP(
"units" "W"
"description" "Power dissipation"
)
) PROP(
"key" "inst"
)
"vsource" STRUCT(
"v" FLOAT DOUBLE PROP(
"units" "V"
"description" "Voltage across the source"
)
"i" FLOAT DOUBLE PROP(
"units" "A"
"description" "Current through the source"
)
"pwr" FLOAT DOUBLE PROP(
"units" "W"
"description" "Power dissipation"
)
) PROP(
"key" "inst"
)
VALUE
"C1" "capacitor" (
nan
1.000000000000000e-06
) PROP(
"model" "capacitor"
)
"R1" "resistor" (
nan
0.000000000000000e+00
0.000000000000000e+00
1.000000000000000e+03
0.000000000000000e+00
) PROP(
"model" "resistor"
)
"Vin" "vsource" (
1.000000000000000e+00
0.000000000000000e+00
0.000000000000000e+00
) PROP(
"model" "vsource"
)
END
