HEADER
"PSFversion" "1.00"
"simulator" "spectre"
"version" "23.1.0.242.isr1"
"date" "5:46:18 PM, Tue Apr 15, 2025"
"design" "#RC Low-Pass Filter"
"analysis type" "sweep"
"analysis name" "mysweep_ac2"
"analysis description" "Sweep parent"
"xVecSorted" "unknown"
"tolerance.relative" 1.000000000000000e-03
TYPE
"sweep" FLOAT DOUBLE PROP(
"key" "sweep"
)
"V" FLOAT DOUBLE PROP(
"units" "V"
"key" "node"
"tolerance" 1.000000000000000e-06
)
"I" FLOAT DOUBLE PROP(
"units" "A"
"key" "branch"
"tolerance" 1.000000000000000e-12
)
"MMF" FLOAT DOUBLE PROP(
"units" "A*turn"
"key" "node"
"tolerance" 1.000000000000000e-12
)
"Wb" FLOAT DOUBLE PROP(
"units" "Wb"
"key" "node"
"tolerance" 1.000000000000000e-09
)
"Temp" FLOAT DOUBLE PROP(
"units" "C"
"key" "node"
"tolerance" 1.000000000000000e-04
)
"Pwr" FLOAT DOUBLE PROP(
"units" "W"
"key" "node"
"tolerance" 1.000000000000000e-09
)
"U" FLOAT DOUBLE PROP(
"units" ""
"key" "node"
"tolerance" 1.000000000000000e-06
)
"V/Sec" FLOAT DOUBLE PROP(
"units" "V/s"
"key" "node"
"tolerance" 9.999999999999999e-05
)
"I/Sec" FLOAT DOUBLE PROP(
"units" "A/s"
"key" "node"
"tolerance" 1.000000000000000e-06
)
"1/Sec" FLOAT DOUBLE PROP(
"units" "1/s"
"key" "node"
"tolerance" 9.999999999999999e-05
)
"HOD" FLOAT DOUBLE PROP(
"units" ""
"key" "node"
"tolerance" 1.000000000000000e-02
)
"Q" FLOAT DOUBLE PROP(
"units" "Coul"
"key" "node"
"tolerance" 1.000000000000000e-15
)
SWEEP
"R1:r" "sweep" PROP(
"sweep_direction" 0
"units" "Ohm"
"plot" 0
"grid" 1
)
VALUE
"R1:r" 1.000000000000000e+03
"R1:r" 2.000000000000000e+03
"R1:r" 3.000000000000000e+03
END
