HEADER
"PSFversion" "1.00"
"simulator" "spectre"
"version" "23.1.0.242.isr1"
"date" "5:46:18 PM, Tue Apr 15, 2025"
"design" "#RC Low-Pass Filter"
"analysis type" "tran"
"analysis name" "mytran"
"analysis description" "Transient Analysis `mytran': time = (0 s -> 500 ms)"
"xVecSorted" "ascending"
"tolerance.relative" 1.000000000000000e-03
"start" 0.000000000000000e+00
"outputstart" 0.000000000000000e+00
"stop" 5.000000000000000e-01
"step" 5.000000000000000e-04
"istep" 1.000000000000000e-03
"maxstep" 1.000000000000000e-02
"ic" "all"
"useprevic" "no"
"skipdc" "no"
"reltol" 1.000000000000000e-03
"abstol(V)" 1.000000000000000e-06
"abstol(I)" 1.000000000000000e-12
"temp" 2.700000000000000e+01
"tnom" 2.700000000000000e+01
"tempeffects" "all"
"errpreset" "moderate"
"method" "traponly"
"lteratio" 3.500000000000000e+00
"relref" "sigglobal"
"cmin" 0.000000000000000e+00
"gmin" 1.000000000000000e-12
TYPE
"sweep" FLOAT DOUBLE PROP(
"key" "sweep"
)
"LogicV" FLOAT DOUBLE PROP(
"key" "node"
)
"V" FLOAT DOUBLE PROP(
"units" "V"
"key" "node"
"tolerance" 1.000000000000000e-06
)
"I" FLOAT DOUBLE PROP(
"units" "A"
"key" "branch"
"tolerance" 1.000000000000000e-12
)
"MMF" FLOAT DOUBLE PROP(
"units" "A*turn"
"key" "node"
"tolerance" 1.000000000000000e-12
)
"Wb" FLOAT DOUBLE PROP(
"units" "Wb"
"key" "node"
"tolerance" 1.000000000000000e-09
)
"Temp" FLOAT DOUBLE PROP(
"units" "C"
"key" "node"
"tolerance" 1.000000000000000e-04
)
"Pwr" FLOAT DOUBLE PROP(
"units" "W"
"key" "node"
"tolerance" 1.000000000000000e-09
)
"U" FLOAT DOUBLE PROP(
"units" ""
"key" "node"
"tolerance" 1.000000000000000e-06
)
"V/Sec" FLOAT DOUBLE PROP(
"units" "V/s"
"key" "node"
"tolerance" 9.999999999999999e-05
)
"I/Sec" FLOAT DOUBLE PROP(
"units" "A/s"
"key" "node"
"tolerance" 1.000000000000000e-06
)
"1/Sec" FLOAT DOUBLE PROP(
"units" "1/s"
"key" "node"
"tolerance" 9.999999999999999e-05
)
"HOD" FLOAT DOUBLE PROP(
"units" ""
"key" "node"
"tolerance" 1.000000000000000e-02
)
"Q" FLOAT DOUBLE PROP(
"units" "Coul"
"key" "node"
"tolerance" 1.000000000000000e-15
)
SWEEP
"time" "sweep" PROP(
"sweep_direction" 0
"units" "s"
"plot" 0
"grid" 1
)
TRACE
"in" "V"
"out" "V"
VALUE
"time" 0.000000000000000e+00
"in" 1.000000000000000e+00
"out" 1.000000000000000e+00
"time" 8.333333333333333e-05
"in" 1.500000000000000e+00
"out" 1.038461538461539e+00
"time" 1.504616443420938e-04
"in" 1.810718516777995e+00
"out" 1.087040801221522e+00
"time" 2.337949776754272e-04
"in" 1.994820906201112e+00
"out" 1.152299114042965e+00
"time" 3.171283110087605e-04
"in" 1.912361837194043e+00
"out" 1.216402494655334e+00
"time" 4.004616443420938e-04
"in" 1.585436150705855e+00
"out" 1.259002214598903e+00
"time" 4.837949776754271e-04
"in" 1.101643320416048e+00
"out" 1.265765216275867e+00
"time" 5.671283110087605e-04
"in" 5.906152445047430e-01
"out" 1.232194341570629e+00
"time" 6.504616443420939e-04
"in" 1.892814832220049e-01
"out" 1.164814663354049e+00
"time" 7.337949776754272e-04
"in" 5.179093798888479e-03
"out" 1.079407913366561e+00
"time" 8.171283110087606e-04
"in" 8.763816280595782e-02
"out" 9.967679705614297e-01
"time" 9.004616443420940e-04
"in" 4.145638492941457e-01
"out" 9.371146134005194e-01
"time" 9.837949776754272e-04
"in" 8.983566795839528e-01
"out" 9.146622654836019e-01
"time" 1.067128311008760e-03
"in" 1.409384755495258e+00
"out" 9.337989416480822e-01
"time" 1.150461644342094e-03
"in" 1.810718516777995e+00
"out" 9.878991572071656e-01
"time" 1.233794977675427e-03
"in" 1.994820906201111e+00
"out" 1.061088801549756e+00
"time" 1.317128311008760e-03
"in" 1.912361837194043e+00
"out" 1.132489007161582e+00
"time" 1.400461644342094e-03
"in" 1.585436150705855e+00
"out" 1.181801806104652e+00
"time" 1.483794977675427e-03
"in" 1.101643320416049e+00
"out" 1.194740840461155e+00
"time" 1.567128311008760e-03
"in" 5.906152445047448e-01
"out" 1.166851915821095e+00
"time" 1.650461644342093e-03
"in" 1.892814832220066e-01
"out" 1.104699631664477e+00
"time" 1.733794977675427e-03
"in" 5.179093798888812e-03
"out" 1.024102084212155e+00
"time" 1.817128311008760e-03
"in" 8.763816280595582e-02
"out" 9.458866077393766e-01
"time" 1.900461644342093e-03
"in" 4.145638492941419e-01
"out" 8.903037596042305e-01
"time" 1.983794977675426e-03
"in" 8.983566795839474e-01
"out" 8.715962799910159e-01
"time" 2.067128311008760e-03
"in" 1.409384755495250e+00
"out" 8.941782349949025e-01
"time" 2.150461644342093e-03
"in" 1.810718516777991e+00
"out" 9.514481070862399e-01
"time" 2.233794977675426e-03
"in" 1.994820906201111e+00
"out" 1.027553835438505e+00
"time" 2.317128311008759e-03
"in" 1.912361837194046e+00
"out" 1.101636838339231e+00
"time" 2.400461644342093e-03
"in" 1.585436150705861e+00
"out" 1.153417810788088e+00
"time" 2.483794977675426e-03
"in" 1.101643320416056e+00
"out" 1.168627564769918e+00
"time" 2.567128311008759e-03
"in" 5.906152445047531e-01
"out" 1.142827702185157e+00
"time" 2.650461644342092e-03
"in" 1.892814832220099e-01
"out" 1.082597355119415e+00
"time" 2.733794977675426e-03
"in" 5.179093798889811e-03
"out" 1.003767989790698e+00
"time" 2.817128311008759e-03
"in" 8.763816280595360e-02
"out" 9.271792408716358e-01
"time" 2.900461644342092e-03
"in" 4.145638492941374e-01
"out" 8.730929820859087e-01
"time" 2.983794977675426e-03
"in" 8.983566795839418e-01
"out" 8.557623646741592e-01
"time" 3.067128311008759e-03
"in" 1.409384755495247e+00
"out" 8.796110329033940e-01
"time" 3.150461644342092e-03
"in" 1.810718516777988e+00
"out" 9.380462811620518e-01
"time" 3.233794977675425e-03
"in" 1.994820906201110e+00
"out" 1.015224155588252e+00
"time" 3.317128311008759e-03
"in" 1.912361837194048e+00
"out" 1.090293532876998e+00
"time" 3.400461644342092e-03
"in" 1.585436150705866e+00
"out" 1.142981969762834e+00
"time" 3.483794977675425e-03
"in" 1.101643320416062e+00
"out" 1.159026591026685e+00
"time" 3.567128311008758e-03
"in" 5.906152445047533e-01
"out" 1.133994806341382e+00
"time" 3.650461644342092e-03
"in" 1.892814832220142e-01
"out" 1.074471090943143e+00
"time" 3.733794977675425e-03
"in" 5.179093798889811e-03
"out" 9.962918267485273e-01
"time" 3.817128311008758e-03
"in" 8.763816280595060e-02
"out" 9.203011708728390e-01
"time" 3.900461644342091e-03
"in" 4.145638492941344e-01
"out" 8.667651576870155e-01
"time" 3.983794977675425e-03
"in" 8.983566795839345e-01
"out" 8.499407662271770e-01
"time" 4.067128311008758e-03
"in" 1.409384755495247e+00
"out" 8.742551623321703e-01
"time" 4.150461644342092e-03
"in" 1.810718516777990e+00
"out" 9.331188802365263e-01
"time" 4.233794977675426e-03
"in" 1.994820906201110e+00
"out" 1.010690946736769e+00
"time" 4.317128311008759e-03
"in" 1.912361837194045e+00
"out" 1.086122980733634e+00
"time" 4.400461644342093e-03
"in" 1.585436150705857e+00
"out" 1.139145061790939e+00
"time" 4.483794977675427e-03
"in" 1.101643320416052e+00
"out" 1.155496635692541e+00
"time" 4.567128311008761e-03
"in" 5.906152445047439e-01
"out" 1.130747247433969e+00
"time" 4.650461644342094e-03
"in" 1.892814832220039e-01
"out" 1.071483336748321e+00
"time" 4.733794977675428e-03
"in" 5.179093798888035e-03
"out" 9.935430928892908e-01
"time" 4.817128311008762e-03
"in" 8.763816280595915e-02
"out" 9.177723357223410e-01
"time" 4.900461644342095e-03
"in" 4.145638492941514e-01
"out" 8.644386293485579e-01
"time" 4.983794977675429e-03
"in" 8.983566795839625e-01
"out" 8.478003601557978e-01
"time" 5.067128311008763e-03
"in" 1.409384755495269e+00
"out" 8.722859887465033e-01
"time" 5.150461644342096e-03
"in" 1.810718516778004e+00
"out" 9.313072405377142e-01
"time" 5.233794977675430e-03
"in" 1.994820906201114e+00
"out" 1.009024238213862e+00
"time" 5.317128311008764e-03
"in" 1.912361837194033e+00
"out" 1.084589608892560e+00
"time" 5.400461644342098e-03
"in" 1.585436150705834e+00
"out" 1.137734359697150e+00
"time" 5.483794977675431e-03
"in" 1.101643320416027e+00
"out" 1.154198789766252e+00
"time" 5.567128311008765e-03
"in" 5.906152445047214e-01
"out" 1.129553229181782e+00
"time" 5.650461644342099e-03
"in" 1.892814832219895e-01
"out" 1.070384839956307e+00
"time" 5.733794977675432e-03
"in" 5.179093798884815e-03
"out" 9.925324758406372e-01
"time" 5.817128311008766e-03
"in" 8.763816280597070e-02
"out" 9.168425680375800e-01
"time" 5.900461644342100e-03
"in" 4.145638492941742e-01
"out" 8.635832430785793e-01
"time" 5.983794977675433e-03
"in" 8.983566795839906e-01
"out" 8.470134047874194e-01
"time" 6.067128311008767e-03
"in" 1.409384755495295e+00
"out" 8.715619898075972e-01
"time" 6.150461644342101e-03
"in" 1.810718516778017e+00
"out" 9.306411615139222e-01
"time" 6.233794977675435e-03
"in" 1.994820906201116e+00
"out" 1.008411445511974e+00
"time" 6.317128311008768e-03
"in" 1.912361837194022e+00
"out" 1.084025839606822e+00
"time" 6.400461644342102e-03
"in" 1.585436150705811e+00
"out" 1.137215691954270e+00
"time" 6.483794977675436e-03
"in" 1.101643320415999e+00
"out" 1.153721615442801e+00
"time" 6.567128311008769e-03
"in" 5.906152445046957e-01
"out" 1.129114228804204e+00
"time" 6.650461644342103e-03
"in" 1.892814832219730e-01
"out" 1.069980959608934e+00
"time" 6.733794977675437e-03
"in" 5.179093798882595e-03
"out" 9.921609059210539e-01
"time" 6.817128311008770e-03
"in" 8.763816280598224e-02
"out" 9.165007237115638e-01
"time" 6.900461644342104e-03
"in" 4.145638492941971e-01
"out" 8.632687462986456e-01
"time" 6.983794977675438e-03
"in" 8.983566795840185e-01
"out" 8.467240677498825e-01
"time" 7.067128311008771e-03
"in" 1.409384755495314e+00
"out" 8.712957997330651e-01
"time" 7.150461644342105e-03
"in" 1.810718516778033e+00
"out" 9.303962666453541e-01
"time" 7.233794977675439e-03
"in" 1.994820906201119e+00
"out" 1.008186142232892e+00
"time" 7.317128311008773e-03
"in" 1.912361837194011e+00
"out" 1.083818560590067e+00
"time" 7.400461644342106e-03
"in" 1.585436150705794e+00
"out" 1.137024995258854e+00
"time" 7.483794977675440e-03
"in" 1.101643320415971e+00
"out" 1.153546174483016e+00
"time" 7.567128311008774e-03
"in" 5.906152445046700e-01
"out" 1.128952823121200e+00
"time" 7.650461644342107e-03
"in" 1.892814832219565e-01
"out" 1.069832466380569e+00
"time" 7.733794977675441e-03
"in" 5.179093798879819e-03
"out" 9.920242921509564e-01
"time" 7.817128311008774e-03
"in" 8.763816280599090e-02
"out" 9.163750390430750e-01
"time" 7.900461644342107e-03
"in" 4.145638492942084e-01
"out" 8.631531164036375e-01
"time" 7.983794977675440e-03
"in" 8.983566795840324e-01
"out" 8.466176882464762e-01
"time" 8.067128311008772e-03
"in" 1.409384755495327e+00
"out" 8.711979305899323e-01
"time" 8.150461644342105e-03
"in" 1.810718516778033e+00
"out" 9.303062270336717e-01
"time" 8.233794977675438e-03
"in" 1.994820906201119e+00
"out" 1.008103305790144e+00
"time" 8.317128311008771e-03
"in" 1.912361837194017e+00
"out" 1.083742351062737e+00
"time" 8.400461644342104e-03
"in" 1.585436150705806e+00
"out" 1.136954882493711e+00
"time" 8.483794977675436e-03
"in" 1.101643320415985e+00
"out" 1.153481670739086e+00
"time" 8.567128311008769e-03
"in" 5.906152445046962e-01
"out" 1.128893479676786e+00
"time" 8.650461644342102e-03
"in" 1.892814832219775e-01
"out" 1.069777870411711e+00
"time" 8.733794977675435e-03
"in" 5.179093798883372e-03
"out" 9.919740638596086e-01
"time" 8.817128311008768e-03
"in" 8.763816280597336e-02
"out" 9.163288290150348e-01
"time" 8.900461644342101e-03
"in" 4.145638492941852e-01
"out" 8.631106031778388e-01
"time" 8.983794977675433e-03
"in" 8.983566795839898e-01
"out" 8.465785760787387e-01
"time" 9.067128311008766e-03
"in" 1.409384755495288e+00
"out" 8.711619473956106e-01
"time" 9.150461644342099e-03
"in" 1.810718516778016e+00
"out" 9.302731224948935e-01
"time" 9.233794977675432e-03
"in" 1.994820906201114e+00
"out" 1.008072849614467e+00
"time" 9.317128311008765e-03
"in" 1.912361837194034e+00
"out" 1.083714331381115e+00
"time" 9.400461644342098e-03
"in" 1.585436150705835e+00
"out" 1.136929104386620e+00
"time" 9.483794977675430e-03
"in" 1.101643320416035e+00
"out" 1.153457954880565e+00
"time" 9.567128311008763e-03
"in" 5.906152445047224e-01
"out" 1.128871661086950e+00
"time" 9.650461644342096e-03
"in" 1.892814832219983e-01
"out" 1.069757797309064e+00
"time" 9.733794977675429e-03
"in" 5.179093798887813e-03
"out" 9.919555966051745e-01
"time" 9.817128311008762e-03
"in" 8.763816280596159e-02
"out" 9.163118391409548e-01
"time" 9.900461644342095e-03
"in" 4.145638492941447e-01
"out" 8.630949724936828e-01
"time" 9.983794977675427e-03
"in" 8.983566795839543e-01
"out" 8.465641958493122e-01
"time" 1.006712831100876e-02
"in" 1.409384755495255e+00
"out" 8.711487175845355e-01
"time" 1.015046164434209e-02
"in" 1.810718516777987e+00
"out" 9.302609510687020e-01
"time" 1.023379497767543e-02
"in" 1.994820906201110e+00
"out" 1.008061651902370e+00
"time" 1.031712831100876e-02
"in" 1.912361837194046e+00
"out" 1.083704029485986e+00
"time" 1.040046164434209e-02
"in" 1.585436150705870e+00
"out" 1.136919626643103e+00
"time" 1.048379497767542e-02
"in" 1.101643320416064e+00
"out" 1.153449235356532e+00
"time" 1.056712831100876e-02
"in" 5.906152445047679e-01
"out" 1.128863639124843e+00
"time" 1.065046164434209e-02
"in" 1.892814832220193e-01
"out" 1.069750417103927e+00
"time" 1.073379497767542e-02
"in" 5.179093798892143e-03
"out" 9.919488068164501e-01
"time" 1.081712831100876e-02
"in" 8.763816280594405e-02
"out" 9.163055925353283e-01
"time" 1.090046164434209e-02
"in" 4.145638492941214e-01
"out" 8.630892256165049e-01
"time" 1.098379497767542e-02
"in" 8.983566795839115e-01
"out" 8.465589087223060e-01
"time" 1.106712831100875e-02
"in" 1.409384755495222e+00
"out" 8.711438534276869e-01
"time" 1.115046164434209e-02
"in" 1.810718516777966e+00
"out" 9.302564760443991e-01
"time" 1.123379497767542e-02
"in" 1.994820906201107e+00
"out" 1.008057534880010e+00
"time" 1.131712831100875e-02
"in" 1.912361837194060e+00
"out" 1.083700241825415e+00
"time" 1.140046164434209e-02
"in" 1.585436150705899e+00
"out" 1.136916141995380e+00
"time" 1.148379497767542e-02
"in" 1.101643320416113e+00
"out" 1.153446029480629e+00
"time" 1.156712831100875e-02
"in" 5.906152445048005e-01
"out" 1.128860689719016e+00
"time" 1.165046164434208e-02
"in" 1.892814832220403e-01
"out" 1.069747703650568e+00
"time" 1.173379497767542e-02
"in" 5.179093798894363e-03
"out" 9.919463104393608e-01
"time" 1.181712831100875e-02
"in" 8.763816280592940e-02
"out" 9.163032958684053e-01
"time" 1.190046164434208e-02
"in" 4.145638492940809e-01
"out" 8.630871126829337e-01
"time" 1.198379497767542e-02
"in" 8.983566795838760e-01
"out" 8.465569648234174e-01
"time" 1.206712831100875e-02
"in" 1.409384755495177e+00
"out" 8.711420650407059e-01
"time" 1.215046164434208e-02
"in" 1.810718516777945e+00
"out" 9.302548307283740e-01
"time" 1.223379497767541e-02
"in" 1.994820906201103e+00
"out" 1.008056021189266e+00
"time" 1.231712831100875e-02
"in" 1.912361837194081e+00
"out" 1.083698849229932e+00
"time" 1.240046164434208e-02
"in" 1.585436150705928e+00
"out" 1.136914860807537e+00
"time" 1.248379497767541e-02
"in" 1.101643320416149e+00
"out" 1.153444850787817e+00
"time" 1.256712831100875e-02
"in" 5.906152445048332e-01
"out" 1.128859605321631e+00
"time" 1.265046164434208e-02
"in" 1.892814832220612e-01
"out" 1.069746706004977e+00
"time" 1.273379497767541e-02
"in" 5.179093798899359e-03
"out" 9.919453926054175e-01
"time" 1.281712831100874e-02
"in" 8.763816280591474e-02
"out" 9.163024514611768e-01
"time" 1.290046164434208e-02
"in" 4.145638492940519e-01
"out" 8.630863358282818e-01
"time" 1.298379497767541e-02
"in" 8.983566795838404e-01
"out" 8.465562501171350e-01
"time" 1.306712831100874e-02
"in" 1.409384755495157e+00
"out" 8.711414075109239e-01
"time" 1.315046164434207e-02
"in" 1.810718516777924e+00
"out" 9.302542258009729e-01
"time" 1.323379497767541e-02
"in" 1.994820906201098e+00
"out" 1.008055464656056e+00
"time" 1.331712831100874e-02
"in" 1.912361837194096e+00
"out" 1.083698337219378e+00
"time" 1.340046164434207e-02
"in" 1.585436150705968e+00
"out" 1.136914389757831e+00
"time" 1.348379497767541e-02
"in" 1.101643320416184e+00
"out" 1.153444417422090e+00
"time" 1.356712831100874e-02
"in" 5.906152445048658e-01
"out" 1.128859206625165e+00
"time" 1.365046164434207e-02
"in" 1.892814832220905e-01
"out" 1.069746339204231e+00
"time" 1.373379497767540e-02
"in" 5.179093798903023e-03
"out" 9.919450551487327e-01
"time" 1.381712831100874e-02
"in" 8.763816280589432e-02
"out" 9.163021410010266e-01
"time" 1.390046164434207e-02
"in" 4.145638492940229e-01
"out" 8.630860502049413e-01
"time" 1.398379497767540e-02
"in" 8.983566795838048e-01
"out" 8.465559873436590e-01
"time" 1.406712831100874e-02
"in" 1.409384755495111e+00
"out" 8.711411657593227e-01
"time" 1.415046164434207e-02
"in" 1.810718516777903e+00
"out" 9.302540033894970e-01
"time" 1.423379497767540e-02
"in" 1.994820906201094e+00
"out" 1.008055260037497e+00
"time" 1.431712831100873e-02
"in" 1.912361837194110e+00
"out" 1.083698148970305e+00
"time" 1.440046164434207e-02
"in" 1.585436150705986e+00
"out" 1.136914216568684e+00
"time" 1.448379497767540e-02
"in" 1.101643320416220e+00
"out" 1.153444258088077e+00
"time" 1.456712831100873e-02
"in" 5.906152445048984e-01
"out" 1.128859060037876e+00
"time" 1.465046164434207e-02
"in" 1.892814832221115e-01
"out" 1.069746204343927e+00
"time" 1.473379497767540e-02
"in" 5.179093798908130e-03
"out" 9.919449310772537e-01
"time" 1.481712831100873e-02
"in" 8.763816280587966e-02
"out" 9.163020268552654e-01
"time" 1.490046164434206e-02
"in" 4.145638492939939e-01
"out" 8.630859451908394e-01
"time" 1.498379497767540e-02
"in" 8.983566795837692e-01
"out" 8.465558907306828e-01
"time" 1.506712831100873e-02
"in" 1.409384755495079e+00
"out" 8.711410768753819e-01
"time" 1.515046164434206e-02
"in" 1.810718516777874e+00
"out" 9.302539216162690e-01
"time" 1.523379497767540e-02
"in" 1.994820906201091e+00
"out" 1.008055184806126e+00
"time" 1.531712831100873e-02
"in" 1.912361837194125e+00
"out" 1.083698079757444e+00
"time" 1.540046164434206e-02
"in" 1.585436150706026e+00
"out" 1.136914152892854e+00
"time" 1.548379497767539e-02
"in" 1.101643320416256e+00
"out" 1.153444199506317e+00
"time" 1.556712831100873e-02
"in" 5.906152445049440e-01
"out" 1.128859006142659e+00
"time" 1.565046164434206e-02
"in" 1.892814832221323e-01
"out" 1.069746154760330e+00
"time" 1.573379497767539e-02
"in" 5.179093798910350e-03
"out" 9.919448854603439e-01
"time" 1.581712831100873e-02
"in" 8.763816280587078e-02
"out" 9.163019848877065e-01
"time" 1.590046164434206e-02
"in" 4.145638492939879e-01
"out" 8.630859065806836e-01
"time" 1.598379497767540e-02
"in" 8.983566795837619e-01
"out" 8.465558552093387e-01
"time" 1.606712831100873e-02
"in" 1.409384755495098e+00
"out" 8.711410441957463e-01
"time" 1.615046164434207e-02
"in" 1.810718516777886e+00
"out" 9.302538915510068e-01
"time" 1.623379497767540e-02
"in" 1.994820906201094e+00
"out" 1.008055157146086e+00
"time" 1.631712831100874e-02
"in" 1.912361837194104e+00
"out" 1.083698054310208e+00
"time" 1.640046164434207e-02
"in" 1.585436150705986e+00
"out" 1.136914129481396e+00
"time" 1.648379497767541e-02
"in" 1.101643320416192e+00
"out" 1.153444177967772e+00
"time" 1.656712831100874e-02
"in" 5.906152445048600e-01
"out" 1.128858986327192e+00
"time" 1.665046164434207e-02
"in" 1.892814832220867e-01
"out" 1.069746136530093e+00
"time" 1.673379497767541e-02
"in" 5.179093798900913e-03
"out" 9.919448686885244e-01
"time" 1.681712831100874e-02
"in" 8.763816280591441e-02
"out" 9.163019694576340e-01
"time" 1.690046164434208e-02
"in" 4.145638492940511e-01
"out" 8.630858923850212e-01
"time" 1.698379497767541e-02
"in" 8.983566795838536e-01
"out" 8.465558421493354e-01
"time" 1.706712831100875e-02
"in" 1.409384755495182e+00
"out" 8.711410321805504e-01
"time" 1.715046164434208e-02
"in" 1.810718516777957e+00
"out" 9.302538804970327e-01
"time" 1.723379497767542e-02
"in" 1.994820906201104e+00
"out" 1.008055146976434e+00
"time" 1.731712831100875e-02
"in" 1.912361837194067e+00
"out" 1.083698044954127e+00
"time" 1.740046164434209e-02
"in" 1.585436150705889e+00
"out" 1.136914120873795e+00
"time" 1.748379497767542e-02
"in" 1.101643320416101e+00
"out" 1.153444170048772e+00
"time" 1.756712831100875e-02
"in" 5.906152445047759e-01
"out" 1.128858979041705e+00
"time" 1.765046164434209e-02
"in" 1.892814832220162e-01
"out" 1.069746129827439e+00
"time" 1.773379497767542e-02
"in" 5.179093798891587e-03
"out" 9.919448625220791e-01
"time" 1.781712831100876e-02
"in" 8.763816280595205e-02
"out" 9.163019637845055e-01
"time" 1.790046164434209e-02
"in" 4.145638492941488e-01
"out" 8.630858871657482e-01
"time" 1.798379497767543e-02
"in" 8.983566795839452e-01
"out" 8.465558373476119e-01
"time" 1.806712831100876e-02
"in" 1.409384755495266e+00
"out" 8.711410277629718e-01
"time" 1.815046164434210e-02
"in" 1.810718516778011e+00
"out" 9.302538764328661e-01
"time" 1.823379497767543e-02
"in" 1.994820906201113e+00
"out" 1.008055143237403e+00
"time" 1.831712831100877e-02
"in" 1.912361837194029e+00
"out" 1.083698041514217e+00
"time" 1.840046164434210e-02
"in" 1.585436150705814e+00
"out" 1.136914117709074e+00
"time" 1.848379497767543e-02
"in" 1.101643320416009e+00
"out" 1.153444167137222e+00
"time" 1.856712831100877e-02
"in" 5.906152445046919e-01
"out" 1.128858976363072e+00
"time" 1.865046164434210e-02
"in" 1.892814832219706e-01
"out" 1.069746127363092e+00
"time" 1.873379497767544e-02
"in" 5.179093798882262e-03
"out" 9.919448602548775e-01
"time" 1.881712831100877e-02
"in" 8.763816280598979e-02
"out" 9.163019616986809e-01
"time" 1.890046164434211e-02
"in" 4.145638492942120e-01
"out" 8.630858852467939e-01
"time" 1.898379497767544e-02
"in" 8.983566795840369e-01
"out" 8.465558355821801e-01
"time" 1.906712831100878e-02
"in" 1.409384755495350e+00
"out" 8.711410261387814e-01
"time" 1.915046164434211e-02
"in" 1.810718516778056e+00
"out" 9.302538749386160e-01
"time" 1.923379497767545e-02
"in" 1.994820906201124e+00
"out" 1.008055141862695e+00
"time" 1.931712831100878e-02
"in" 1.912361837193997e+00
"out" 1.083698040249485e+00
"time" 1.940046164434212e-02
"in" 1.585436150705751e+00
"out" 1.136914116545517e+00
"time" 1.948379497767545e-02
"in" 1.101643320415903e+00
"out" 1.153444166066742e+00
"time" 1.956712831100878e-02
"in" 5.906152445046208e-01
"out" 1.128858975378223e+00
"time" 1.965046164434212e-02
"in" 1.892814832219166e-01
"out" 1.069746126457026e+00
"time" 1.973379497767545e-02
"in" 5.179093798871381e-03
"out" 9.919448594212945e-01
"time" 1.981712831100879e-02
"in" 8.763816280602166e-02
"out" 9.163019609317856e-01
"time" 1.990046164434212e-02
"in" 4.145638492942867e-01
"out" 8.630858845412543e-01
"time" 1.998379497767546e-02
"in" 8.983566795841427e-01
"out" 8.465558349330909e-01
"time" 2.006712831100879e-02
"in" 1.409384755495421e+00
"out" 8.711410255416265e-01
"time" 2.015046164434213e-02
"in" 1.810718516778110e+00
"out" 9.302538743892386e-01
"time" 2.023379497767546e-02
"in" 1.994820906201133e+00
"out" 1.008055141357270e+00
"time" 2.031712831100880e-02
"in" 1.912361837193959e+00
"out" 1.083698039784494e+00
"time" 2.040046164434213e-02
"in" 1.585436150705676e+00
"out" 1.136914116117720e+00
"time" 2.048379497767546e-02
"in" 1.101643320415812e+00
"out" 1.153444165673162e+00
"time" 2.056712831100880e-02
"in" 5.906152445045367e-01
"out" 1.128858975016123e+00
"time" 2.065046164434213e-02
"in" 1.892814832218627e-01
"out" 1.069746126123889e+00
"time" 2.073379497767547e-02
"in" 5.179093798862056e-03
"out" 9.919448591148052e-01
"time" 2.081712831100880e-02
"in" 8.763816280605941e-02
"out" 9.163019606498166e-01
"time" 2.090046164434214e-02
"in" 4.145638492943614e-01
"out" 8.630858842818475e-01
"time" 2.098379497767547e-02
"in" 8.983566795842343e-01
"out" 8.465558346944434e-01
"time" 2.106712831100881e-02
"in" 1.409384755495505e+00
"out" 8.711410253220778e-01
"time" 2.115046164434214e-02
"in" 1.810718516778164e+00
"out" 9.302538741872590e-01
"time" 2.123379497767548e-02
"in" 1.994820906201143e+00
"out" 1.008055141171452e+00
"time" 2.131712831100881e-02
"in" 1.912361837193910e+00
"out" 1.083698039613539e+00
"time" 2.140046164434214e-02
"in" 1.585436150705601e+00
"out" 1.136914115960437e+00
"time" 2.148379497767548e-02
"in" 1.101643320415720e+00
"out" 1.153444165528455e+00
"time" 2.156712831100881e-02
"in" 5.906152445044268e-01
"out" 1.128858974882984e+00
"time" 2.165046164434215e-02
"in" 1.892814832218087e-01
"out" 1.069746126001394e+00
"time" 2.173379497767548e-02
"in" 5.179093798852730e-03
"out" 9.919448590021077e-01
"time" 2.181712831100882e-02
"in" 8.763816280610881e-02
"out" 9.163019605461364e-01
"time" 2.190046164434215e-02
"in" 4.145638492944360e-01
"out" 8.630858841864667e-01
"time" 2.198379497767549e-02
"in" 8.983566795843260e-01
"out" 8.465558346066996e-01
"time" 2.206712831100882e-02
"in" 1.409384755495615e+00
"out" 8.711410252413617e-01
"time" 2.215046164434216e-02
"in" 1.810718516778218e+00
"out" 9.302538741130070e-01
"time" 2.223379497767549e-02
"in" 1.994820906201152e+00
"out" 1.008055141103142e+00
"time" 2.231712831100882e-02
"in" 1.912361837193872e+00
"out" 1.083698039550693e+00
"time" 2.240046164434216e-02
"in" 1.585436150705527e+00
"out" 1.136914115902614e+00
"time" 2.248379497767549e-02
"in" 1.101643320415628e+00
"out" 1.153444165475252e+00
"time" 2.256712831100883e-02
"in" 5.906152445043427e-01
"out" 1.128858974834030e+00
"time" 2.265046164434216e-02
"in" 1.892814832217549e-01
"out" 1.069746125956351e+00
"time" 2.273379497767550e-02
"in" 5.179093798843293e-03
"out" 9.919448589606655e-01
"time" 2.281712831100883e-02
"in" 8.763816280614645e-02
"out" 9.163019605080106e-01
"time" 2.290046164434217e-02
"in" 4.145638492945107e-01
"out" 8.630858841513954e-01
"time" 2.298379497767550e-02
"in" 8.983566795844176e-01
"out" 8.465558345744407e-01
"time" 2.306712831100884e-02
"in" 1.409384755495699e+00
"out" 8.711410252116903e-01
"time" 2.315046164434217e-02
"in" 1.810718516778272e+00
"out" 9.302538740857148e-01
"time" 2.323379497767551e-02
"in" 1.994820906201161e+00
"out" 1.008055141078036e+00
"time" 2.331712831100884e-02
"in" 1.912361837193835e+00
"out" 1.083698039527594e+00
"time" 2.340046164434217e-02
"in" 1.585436150705452e+00
"out" 1.136914115881359e+00
"time" 2.348379497767551e-02
"in" 1.101643320415536e+00
"out" 1.153444165455690e+00
"time" 2.356712831100884e-02
"in" 5.906152445042587e-01
"out" 1.128858974816026e+00
"time" 2.365046164434218e-02
"in" 1.892814832217009e-01
"out" 1.069746125939782e+00
"time" 2.373379497767551e-02
"in" 5.179093798833967e-03
"out" 9.919448589454195e-01
"time" 2.381712831100885e-02
"in" 8.763816280618419e-02
"out" 9.163019604939857e-01
"time" 2.390046164434218e-02
"in" 4.145638492945855e-01
"out" 8.630858841384967e-01
"time" 2.398379497767552e-02
"in" 8.983566795845093e-01
"out" 8.465558345625805e-01
"time" 2.406712831100885e-02
"in" 1.409384755495757e+00
"out" 8.711410252007852e-01
"time" 2.415046164434219e-02
"in" 1.810718516778326e+00
"out" 9.302538740756865e-01
"time" 2.423379497767552e-02
"in" 1.994820906201171e+00
"out" 1.008055141068813e+00
"time" 2.431712831100885e-02
"in" 1.912361837193809e+00
"out" 1.083698039519108e+00
"time" 2.440046164434219e-02
"in" 1.585436150705377e+00
"out" 1.136914115873547e+00
"time" 2.448379497767552e-02
"in" 1.101643320415445e+00
"out" 1.153444165448496e+00
"time" 2.456712831100886e-02
"in" 5.906152445042006e-01
"out" 1.128858974809402e+00
"time" 2.465046164434219e-02
"in" 1.892814832216470e-01
"out" 1.069746125933683e+00
"time" 2.473379497767553e-02
"in" 5.179093798827528e-03
"out" 9.919448589398061e-01
"time" 2.481712831100886e-02
"in" 8.763816280621028e-02
"out" 9.163019604888220e-01
"time" 2.490046164434220e-02
"in" 4.145638492946602e-01
"out" 8.630858841337502e-01
"time" 2.498379497767553e-02
"in" 8.983566795845725e-01
"out" 8.465558345582193e-01
"time" 2.506712831100887e-02
"in" 1.409384755495841e+00
"out" 8.711410251967786e-01
"time" 2.515046164434220e-02
"in" 1.810718516778380e+00
"out" 9.302538740720060e-01
"time" 2.523379497767553e-02
"in" 1.994820906201177e+00
"out" 1.008055141065429e+00
"time" 2.531712831100887e-02
"in" 1.912361837193771e+00
"out" 1.083698039515994e+00
"time" 2.540046164434220e-02
"in" 1.585436150705303e+00
"out" 1.136914115870678e+00
"time" 2.548379497767554e-02
"in" 1.101643320415381e+00
"out" 1.153444165445851e+00
"time" 2.556712831100887e-02
"in" 5.906152445041164e-01
"out" 1.128858974806962e+00
"time" 2.565046164434221e-02
"in" 1.892814832215930e-01
"out" 1.069746125931433e+00
"time" 2.573379497767554e-02
"in" 5.179093798815204e-03
"out" 9.919448589377334e-01
"time" 2.581712831100888e-02
"in" 8.763816280624803e-02
"out" 9.163019604869161e-01
"time" 2.590046164434221e-02
"in" 4.145638492947348e-01
"out" 8.630858841320014e-01
"time" 2.598379497767555e-02
"in" 8.983566795846926e-01
"out" 8.465558345566181e-01
"time" 2.606712831100888e-02
"in" 1.409384755495926e+00
"out" 8.711410251953136e-01
"time" 2.615046164434221e-02
"in" 1.810718516778434e+00
"out" 9.302538740706636e-01
"time" 2.623379497767555e-02
"in" 1.994820906201189e+00
"out" 1.008055141064197e+00
"time" 2.631712831100888e-02
"in" 1.912361837193733e+00
"out" 1.083698039514859e+00
"time" 2.640046164434222e-02
"in" 1.585436150705228e+00
"out" 1.136914115869629e+00
"time" 2.648379497767555e-02
"in" 1.101643320415262e+00
"out" 1.153444165444879e+00
"time" 2.656712831100889e-02
"in" 5.906152445040325e-01
"out" 1.128858974806060e+00
"time" 2.665046164434222e-02
"in" 1.892814832215390e-01
"out" 1.069746125930597e+00
"time" 2.673379497767556e-02
"in" 5.179093798805878e-03
"out" 9.919448589369624e-01
"time" 2.681712831100889e-02
"in" 8.763816280628567e-02
"out" 9.163019604862080e-01
"time" 2.690046164434223e-02
"in" 4.145638492948095e-01
"out" 8.630858841313545e-01
"time" 2.698379497767556e-02
"in" 8.983566795847842e-01
"out" 8.465558345560296e-01
"time" 2.706712831100890e-02
"in" 1.409384755496010e+00
"out" 8.711410251947792e-01
"time" 2.715046164434223e-02
"in" 1.810718516778488e+00
"out" 9.302538740701777e-01
"time" 2.723379497767556e-02
"in" 1.994820906201199e+00
"out" 1.008055141063752e+00
"time" 2.731712831100890e-02
"in" 1.912361837193695e+00
"out" 1.083698039514449e+00
"time" 2.740046164434223e-02
"in" 1.585436150705153e+00
"out" 1.136914115869247e+00
"time" 2.748379497767557e-02
"in" 1.101643320415170e+00
"out" 1.153444165444521e+00
"time" 2.756712831100890e-02